/*--------------------------------*- C++ -*----------------------------------*\
| =========                 |                                                 |
| \\      /  F ield         | OpenFOAM: The Open Source CFD Toolbox           |
|  \\    /   O peration     | Version:  2112                                  |
|   \\  /    A nd           | Website:  www.openfoam.com                      |
|    \\/     M anipulation  |                                                 |
\*---------------------------------------------------------------------------*/
FoamFile
{
    version     2.0;
    format      ascii;
    arch        "LSB;label=32;scalar=64";
    class       surfaceScalarField;
    location    "0.025";
    object      phi;
}
// * * * * * * * * * * * * * * * * * * * * * * * * * * * * * * * * * * * * * //

dimensions      [0 3 -1 0 0 0 0];

oriented        oriented;

internalField   nonuniform List<scalar> 
511
(
5.20031e-26
2.11262e-25
3.57506e-25
8.67718e-25
7.81595e-25
1.00863e-24
1.01569e-24
1.1241e-25
3.53722e-25
-9.23682e-26
2.36344e-25
-4.81431e-26
1.23598e-24
1.14568e-24
1.0192e-24
1.82503e-25
2.88509e-25
1.11932e-25
8.10555e-24
1.25912e-22
1.17423e-22
-5.7143e-23
-2.59466e-23
-1.39683e-22
-1.74972e-22
-2.79941e-22
-3.28562e-22
-2.75965e-22
-3.7701e-22
-3.69572e-22
-2.28134e-22
-1.09073e-22
-7.1048e-23
-9.86492e-23
-8.15411e-23
-2.3501e-22
-7.65562e-23
-1.46237e-22
-2.88862e-22
-1.39498e-22
-2.08885e-22
-1.36804e-22
-1.8722e-22
-2.09728e-22
-1.73349e-22
-1.53119e-22
-1.04233e-22
-1.753e-22
-1.41126e-22
-9.99421e-23
-1.57384e-22
-1.37919e-22
-5.87598e-23
-1.10497e-23
-2.70348e-23
-5.85627e-23
6.01253e-23
-4.22331e-23
-1.36779e-22
-2.14338e-23
-1.44307e-23
7.75993e-23
8.97504e-23
4.87263e-23
-4.45172e-23
-7.43516e-23
-7.2269e-23
-3.63503e-23
1.19293e-22
5.81398e-23
1.30017e-22
2.84195e-22
1.21733e-22
1.74781e-22
1.23432e-22
1.72471e-22
9.3968e-23
7.61688e-23
-4.41402e-23
-4.17572e-24
2.9118e-23
-6.12372e-23
-3.83561e-27
1.1331e-22
-3.484e-23
-5.42611e-23
-6.6375e-23
-6.20172e-23
-3.02035e-24
9.14035e-23
-1.88332e-23
-6.33586e-23
-1.02067e-22
-8.88884e-23
-4.11131e-23
-1.16642e-22
-3.21778e-23
-9.8225e-23
-1.15138e-22
-7.96166e-23
-1.68526e-22
-1.05332e-22
-1.87068e-22
-1.54663e-22
-1.44988e-22
-2.01983e-22
-2.99462e-22
-3.23372e-22
-3.31484e-22
-4.58639e-22
-3.92833e-22
-4.16163e-22
-3.48966e-22
-4.62149e-22
-4.75345e-22
-5.09752e-22
-5.42842e-22
-5.20808e-22
-4.92862e-22
-4.42154e-22
-5.43298e-22
-6.71868e-22
-6.559e-22
-7.57517e-22
-8.62728e-22
-9.45152e-22
-9.15602e-22
-9.89766e-22
-9.74361e-22
-1.0203e-21
-1.04837e-21
-1.05602e-21
-9.8048e-22
-9.67114e-22
-1.01168e-21
-1.0017e-21
-9.84165e-22
-9.60113e-22
-1.00811e-21
-1.07453e-21
-1.14498e-21
-1.11479e-21
-1.22428e-21
-1.15423e-21
-1.07226e-21
-1.1349e-21
-9.88303e-22
-1.00531e-21
-8.68787e-22
-8.49338e-22
-8.49183e-22
-9.50534e-22
-9.27386e-22
-9.09094e-22
-9.26323e-22
-9.96473e-22
-9.13259e-22
-8.55855e-22
-8.98029e-22
-9.09902e-22
-8.30212e-22
-8.17656e-22
-7.43429e-22
-6.52125e-22
-7.82147e-22
-7.12459e-22
-7.58718e-22
-8.7337e-22
-9.17277e-22
-1.00968e-21
-1.0126e-21
-1.00559e-21
-1.06796e-21
-1.15928e-21
-1.18163e-21
-1.36845e-21
-1.37815e-21
-1.36018e-21
-1.39732e-21
-1.42671e-21
-1.4663e-21
-1.39473e-21
-1.32456e-21
-1.32498e-21
-1.43605e-21
-1.44548e-21
-1.3541e-21
-1.3389e-21
-1.37196e-21
-1.30859e-21
-1.29223e-21
-1.27592e-21
-1.28201e-21
-1.23752e-21
-1.14092e-21
-1.10131e-21
-1.00309e-21
-1.14133e-21
-1.1095e-21
-1.22875e-21
-1.22848e-21
-1.06305e-21
-1.03351e-21
-1.02292e-21
-1.04117e-21
-1.06492e-21
-1.10287e-21
-9.96638e-22
-1.02703e-21
-9.54373e-22
-9.51992e-22
-9.36741e-22
-8.4354e-22
-9.1933e-22
-1.01055e-21
-9.95239e-22
-1.00971e-21
-1.06248e-21
-1.04575e-21
-1.17058e-21
-1.12932e-21
-1.11803e-21
-1.11026e-21
-1.09649e-21
-1.08902e-21
-9.53572e-22
-9.31862e-22
-9.83874e-22
-1.049e-21
-1.01975e-21
-1.07476e-21
-1.0244e-21
-9.81872e-22
-1.14564e-21
-1.16768e-21
-1.18538e-21
-1.18468e-21
-1.07592e-21
-1.05614e-21
-1.06925e-21
-1.0734e-21
-1.07753e-21
-1.11022e-21
-1.05995e-21
-1.00941e-21
-1.06766e-21
-1.02073e-21
-1.08719e-21
-1.09331e-21
-1.15959e-21
-1.007e-21
-9.40189e-22
-9.26249e-22
-8.61076e-22
-8.1296e-22
-8.95507e-22
-9.21899e-22
-9.66598e-22
-9.76541e-22
-9.60285e-22
-8.86373e-22
-7.78126e-22
-6.97001e-22
-7.00666e-22
-7.76219e-22
-8.15831e-22
-8.58708e-22
-8.23975e-22
-8.02309e-22
-9.21329e-22
-8.74967e-22
-8.85428e-22
-8.11985e-22
-8.11649e-22
-7.53844e-22
-7.65699e-22
-8.35016e-22
-6.88408e-22
-7.98989e-22
-9.56409e-22
-7.84218e-22
-8.26369e-22
-7.60534e-22
-7.74558e-22
-7.48708e-22
-7.32163e-22
-7.82469e-22
-7.53454e-22
-7.3092e-22
-8.06769e-22
-8.01159e-22
-7.52458e-22
-6.91552e-22
-6.33756e-22
-6.4046e-22
-7.30885e-22
-7.66025e-22
-6.35035e-22
-7.55239e-22
-7.89788e-22
-7.9193e-22
-8.03279e-22
-7.76979e-22
-8.19596e-22
-8.38872e-22
-9.05962e-22
-9.27461e-22
-9.51744e-22
-1.05189e-21
-1.10522e-21
-1.20743e-21
-1.12735e-21
-1.01872e-21
-1.08112e-21
-1.09634e-21
-1.22422e-21
-1.18109e-21
-1.09207e-21
-1.15095e-21
-1.11835e-21
-1.09534e-21
-1.02678e-21
-1.07001e-21
-1.10607e-21
-1.1253e-21
-1.11293e-21
-1.14393e-21
-1.11451e-21
-1.03742e-21
-1.03848e-21
-1.04993e-21
-1.07156e-21
-1.09731e-21
-1.03745e-21
-9.7608e-22
-1.04346e-21
-1.02077e-21
-1.12413e-21
-1.17232e-21
-1.16449e-21
-1.03214e-21
-1.09871e-21
-1.00035e-21
-1.07072e-21
-1.25744e-21
-1.06046e-21
-1.18395e-21
-1.20136e-21
-1.22304e-21
-1.36228e-21
-1.28735e-21
-1.26178e-21
-1.33465e-21
-1.29888e-21
-1.3107e-21
-1.27037e-21
-1.3256e-21
-1.3721e-21
-1.47296e-21
-1.48919e-21
-1.40783e-21
-1.4292e-21
-1.39372e-21
-1.34248e-21
-1.25192e-21
-1.3607e-21
-1.27429e-21
-1.23405e-21
-1.33474e-21
-1.27274e-21
-1.20907e-21
-1.07176e-21
-1.18433e-21
-1.20517e-21
-1.07906e-21
-1.06459e-21
-1.02144e-21
-9.51474e-22
-9.3719e-22
-9.41864e-22
-1.12122e-21
-1.05097e-21
-1.14788e-21
-1.16755e-21
-1.17554e-21
-1.1722e-21
-1.21231e-21
-1.22701e-21
-1.30074e-21
-1.25874e-21
-1.32999e-21
-1.28018e-21
-1.27785e-21
-1.28218e-21
-1.27915e-21
-1.11837e-21
-1.11616e-21
-1.01408e-21
-1.00806e-21
-9.95022e-22
-1.0296e-21
-1.02136e-21
-1.07824e-21
-1.09582e-21
-1.06429e-21
-1.14573e-21
-1.11229e-21
-1.18423e-21
-1.16184e-21
-1.17772e-21
-1.25041e-21
-1.15306e-21
-1.15246e-21
-1.15085e-21
-1.08831e-21
-1.1354e-21
-1.11057e-21
-1.02148e-21
-1.10269e-21
-1.06805e-21
-1.1314e-21
-1.09658e-21
-1.12321e-21
-1.06048e-21
-1.17138e-21
-1.23114e-21
-1.22893e-21
-1.20448e-21
-1.20729e-21
-1.27098e-21
-1.33338e-21
-1.3477e-21
-1.26141e-21
-1.23232e-21
-1.3362e-21
-1.39213e-21
-1.34979e-21
-1.28108e-21
-1.29209e-21
-1.24956e-21
-1.18278e-21
-1.08512e-21
-1.12076e-21
-1.22103e-21
-1.16997e-21
-1.25923e-21
-1.31786e-21
-1.30594e-21
-1.33362e-21
-1.31179e-21
-1.19103e-21
-1.06717e-21
-1.14352e-21
-1.12863e-21
-1.0218e-21
-1.07208e-21
-1.06908e-21
-9.54576e-22
-8.86315e-22
-9.29561e-22
-8.86417e-22
-9.00992e-22
-9.69732e-22
-9.42482e-22
-9.1371e-22
-8.38101e-22
-8.7204e-22
-8.48409e-22
-8.66043e-22
-9.27406e-22
-7.68583e-22
-8.2695e-22
-7.79975e-22
-8.39174e-22
-7.52037e-22
-7.28195e-22
-8.04988e-22
-7.32701e-22
-7.40349e-22
-7.50034e-22
-7.22171e-22
-6.8043e-22
-7.97339e-22
-8.04421e-22
-7.73301e-22
-8.14193e-22
-8.63955e-22
-7.95944e-22
-8.06735e-22
-7.99039e-22
-6.69695e-22
-6.97526e-22
-7.41731e-22
-7.31579e-22
-7.26302e-22
-7.71168e-22
-7.61599e-22
-8.11875e-22
-8.14575e-22
-7.06688e-22
-6.40951e-22
-6.18817e-22
-5.83544e-22
-6.60273e-22
-6.83754e-22
-6.04208e-22
-4.55511e-22
-4.39471e-22
-3.46107e-22
-4.40503e-22
-3.49419e-22
)
;

boundaryField
{
    upDown
    {
        type            empty;
        value           nonuniform List<scalar> 0();
    }
    left
    {
        type            calculated;
        value           uniform -1.04694e-31;
    }
    right
    {
        type            calculated;
        value           uniform -7.06761e-22;
    }
    frontAndBack
    {
        type            empty;
        value           nonuniform List<scalar> 0();
    }
}


// ************************************************************************* //
