/*--------------------------------*- C++ -*----------------------------------*\
| =========                 |                                                 |
| \\      /  F ield         | OpenFOAM: The Open Source CFD Toolbox           |
|  \\    /   O peration     | Version:  2112                                  |
|   \\  /    A nd           | Website:  www.openfoam.com                      |
|    \\/     M anipulation  |                                                 |
\*---------------------------------------------------------------------------*/
FoamFile
{
    version     2.0;
    format      ascii;
    arch        "LSB;label=32;scalar=64";
    class       volVectorField;
    location    "0.025";
    object      U;
}
// * * * * * * * * * * * * * * * * * * * * * * * * * * * * * * * * * * * * * //

dimensions      [0 1 -1 0 0 0 0];

internalField   nonuniform List<vector> 
512
(
(2.44734e-13 0 0)
(-2.17432e-14 0 0)
(6.24752e-14 0 0)
(5.15466e-14 0 0)
(3.81169e-14 0 0)
(1.17026e-13 0 0)
(1.0654e-13 0 0)
(9.66154e-14 0 0)
(-2.01791e-13 0 0)
(5.49067e-13 0 0)
(-4.84202e-13 0 0)
(-5.50858e-13 0 0)
(1.40581e-11 0 0)
(-6.1235e-11 0 0)
(1.25582e-10 0 0)
(-1.46203e-10 0 0)
(9.19335e-11 0 0)
(2.21455e-11 0 0)
(-3.27925e-10 0 0)
(7.22669e-09 0 0)
(-1.59682e-08 0 0)
(1.63899e-08 0 0)
(-1.14653e-08 0 0)
(5.28459e-09 0 0)
(-1.26827e-09 0 0)
(-1.04252e-11 0 0)
(2.53612e-11 0 0)
(-8.05568e-11 0 0)
(-1.2447e-11 0 0)
(-4.12541e-11 0 0)
(-2.99403e-11 0 0)
(-1.58349e-11 0 0)
(-8.627e-12 0 0)
(-8.29871e-12 0 0)
(-8.85931e-12 0 0)
(-1.52456e-11 0 0)
(-1.56527e-11 0 0)
(-1.04621e-11 0 0)
(-2.15117e-11 0 0)
(-2.03056e-11 0 0)
(-1.81024e-11 0 0)
(-1.83847e-11 0 0)
(-1.69151e-11 0 0)
(-2.05268e-11 0 0)
(-1.89283e-11 0 0)
(-1.55908e-11 0 0)
(-1.26055e-11 0 0)
(-1.33867e-11 0 0)
(-1.63752e-11 0 0)
(-1.17787e-11 0 0)
(-1.35809e-11 0 0)
(-1.51026e-11 0 0)
(-1.0121e-11 0 0)
(-3.98687e-12 0 0)
(-1.09386e-12 0 0)
(-4.23598e-12 0 0)
(4.62701e-13 0 0)
(8.27583e-13 0 0)
(-9.05623e-12 0 0)
(-7.85817e-12 0 0)
(-1.57213e-12 0 0)
(3.90266e-12 0 0)
(8.97427e-12 0 0)
(6.47727e-12 0 0)
(4.70535e-13 0 0)
(-6.87549e-12 0 0)
(-7.76903e-12 0 0)
(-6.76206e-12 0 0)
(4.63539e-12 0 0)
(9.00784e-12 0 0)
(1.01885e-11 0 0)
(2.12618e-11 0 0)
(1.96951e-11 0 0)
(1.53065e-11 0 0)
(1.43578e-11 0 0)
(1.56246e-11 0 0)
(1.35755e-11 0 0)
(7.78611e-12 0 0)
(2.08829e-12 0 0)
(-2.8287e-12 0 0)
(1.7716e-12 0 0)
(-9.52854e-13 0 0)
(-3.49405e-12 0 0)
(6.20934e-12 0 0)
(3.14236e-12 0 0)
(-4.80819e-12 0 0)
(-6.12139e-12 0 0)
(-7.00719e-12 0 0)
(-2.89765e-12 0 0)
(5.09305e-12 0 0)
(2.59174e-12 0 0)
(-3.92729e-12 0 0)
(-8.59575e-12 0 0)
(-9.31324e-12 0 0)
(-5.60182e-12 0 0)
(-7.84355e-12 0 0)
(-7.7636e-12 0 0)
(-6.54151e-12 0 0)
(-1.03854e-11 0 0)
(-9.91605e-12 0 0)
(-1.14497e-11 0 0)
(-1.43879e-11 0 0)
(-1.44017e-11 0 0)
(-1.78622e-11 0 0)
(-1.57216e-11 0 0)
(-1.60693e-11 0 0)
(-2.42441e-11 0 0)
(-3.02893e-11 0 0)
(-3.42365e-11 0 0)
(-4.02983e-11 0 0)
(-4.3265e-11 0 0)
(-4.06646e-11 0 0)
(-3.72801e-11 0 0)
(-4.04499e-11 0 0)
(-4.65416e-11 0 0)
(-4.88203e-11 0 0)
(-5.29795e-11 0 0)
(-5.30192e-11 0 0)
(-5.09917e-11 0 0)
(-4.76601e-11 0 0)
(-4.87849e-11 0 0)
(-5.95777e-11 0 0)
(-6.70034e-11 0 0)
(-6.94705e-11 0 0)
(-8.2033e-11 0 0)
(-9.06573e-11 0 0)
(-9.27944e-11 0 0)
(-9.59027e-11 0 0)
(-9.66893e-11 0 0)
(-1.00684e-10 0 0)
(-1.03522e-10 0 0)
(-1.06223e-10 0 0)
(-1.02187e-10 0 0)
(-9.67064e-11 0 0)
(-9.92129e-11 0 0)
(-1.00406e-10 0 0)
(-1.00079e-10 0 0)
(-9.68268e-11 0 0)
(-9.76964e-11 0 0)
(-1.04066e-10 0 0)
(-1.10775e-10 0 0)
(-1.12926e-10 0 0)
(-1.17901e-10 0 0)
(-1.19083e-10 0 0)
(-1.11764e-10 0 0)
(-1.10551e-10 0 0)
(-1.05919e-10 0 0)
(-9.97598e-11 0 0)
(-9.32091e-11 0 0)
(-8.59174e-11 0 0)
(-8.39502e-11 0 0)
(-9.1034e-11 0 0)
(-9.39252e-11 0 0)
(-9.16253e-11 0 0)
(-9.26899e-11 0 0)
(-9.5301e-11 0 0)
(-9.59776e-11 0 0)
(-8.93943e-11 0 0)
(-8.72192e-11 0 0)
(-8.95911e-11 0 0)
(-8.70976e-11 0 0)
(-8.15185e-11 0 0)
(-7.92904e-11 0 0)
(-6.97576e-11 0 0)
(-7.10439e-11 0 0)
(-7.49399e-11 0 0)
(-7.2622e-11 0 0)
(-8.19172e-11 0 0)
(-9.00405e-11 0 0)
(-9.59866e-11 0 0)
(-1.00731e-10 0 0)
(-1.01786e-10 0 0)
(-1.01913e-10 0 0)
(-1.11894e-10 0 0)
(-1.17169e-10 0 0)
(-1.27103e-10 0 0)
(-1.38722e-10 0 0)
(-1.36681e-10 0 0)
(-1.38152e-10 0 0)
(-1.41237e-10 0 0)
(-1.44331e-10 0 0)
(-1.43489e-10 0 0)
(-1.35598e-10 0 0)
(-1.31821e-10 0 0)
(-1.38465e-10 0 0)
(-1.43527e-10 0 0)
(-1.40269e-10 0 0)
(-1.35705e-10 0 0)
(-1.34866e-10 0 0)
(-1.3416e-10 0 0)
(-1.30202e-10 0 0)
(-1.28248e-10 0 0)
(-1.27159e-10 0 0)
(-1.2623e-10 0 0)
(-1.18912e-10 0 0)
(-1.11707e-10 0 0)
(-1.06053e-10 0 0)
(-1.07654e-10 0 0)
(-1.12744e-10 0 0)
(-1.17023e-10 0 0)
(-1.23429e-10 0 0)
(-1.14256e-10 0 0)
(-1.03937e-10 0 0)
(-1.02549e-10 0 0)
(-1.02104e-10 0 0)
(-1.06129e-10 0 0)
(-1.09505e-10 0 0)
(-1.05772e-10 0 0)
(-1.01425e-10 0 0)
(-9.88362e-11 0 0)
(-9.46873e-11 0 0)
(-9.30578e-11 0 0)
(-8.89273e-11 0 0)
(-8.78662e-11 0 0)
(-9.578e-11 0 0)
(-1.0111e-10 0 0)
(-1.00509e-10 0 0)
(-1.04228e-10 0 0)
(-1.05474e-10 0 0)
(-1.11761e-10 0 0)
(-1.14415e-10 0 0)
(-1.11304e-10 0 0)
(-1.12377e-10 0 0)
(-1.09676e-10 0 0)
(-1.09691e-10 0 0)
(-1.02679e-10 0 0)
(-9.34008e-11 0 0)
(-9.56939e-11 0 0)
(-1.00933e-10 0 0)
(-1.03497e-10 0 0)
(-1.059e-10 0 0)
(-1.0383e-10 0 0)
(-1.00978e-10 0 0)
(-1.05978e-10 0 0)
(-1.15212e-10 0 0)
(-1.18396e-10 0 0)
(-1.18533e-10 0 0)
(-1.13329e-10 0 0)
(-1.06926e-10 0 0)
(-1.06951e-10 0 0)
(-1.07047e-10 0 0)
(-1.07415e-10 0 0)
(-1.08237e-10 0 0)
(-1.08369e-10 0 0)
(-1.03762e-10 0 0)
(-1.03639e-10 0 0)
(-1.04303e-10 0 0)
(-1.05216e-10 0 0)
(-1.0957e-10 0 0)
(-1.11889e-10 0 0)
(-1.09221e-10 0 0)
(-9.75438e-11 0 0)
(-9.31409e-11 0 0)
(-8.95331e-11 0 0)
(-8.26148e-11 0 0)
(-8.51185e-11 0 0)
(-9.15599e-11 0 0)
(-9.53164e-11 0 0)
(-9.81556e-11 0 0)
(-9.71487e-11 0 0)
(-9.20417e-11 0 0)
(-8.27344e-11 0 0)
(-7.28888e-11 0 0)
(-6.9083e-11 0 0)
(-7.36971e-11 0 0)
(-7.91234e-11 0 0)
(-8.38191e-11 0 0)
(-8.54974e-11 0 0)
(-8.17961e-11 0 0)
(-8.6684e-11 0 0)
(-8.94924e-11 0 0)
(-8.82191e-11 0 0)
(-8.35749e-11 0 0)
(-8.1469e-11 0 0)
(-7.82139e-11 0 0)
(-7.5275e-11 0 0)
(-8.05141e-11 0 0)
(-7.58258e-11 0 0)
(-7.50196e-11 0 0)
(-8.75615e-11 0 0)
(-8.77021e-11 0 0)
(-7.97273e-11 0 0)
(-8.03279e-11 0 0)
(-7.70686e-11 0 0)
(-7.52001e-11 0 0)
(-7.46166e-11 0 0)
(-7.43065e-11 0 0)
(-7.69727e-11 0 0)
(-7.36468e-11 0 0)
(-7.79025e-11 0 0)
(-8.08042e-11 0 0)
(-7.67827e-11 0 0)
(-7.36356e-11 0 0)
(-6.47481e-11 0 0)
(-6.47985e-11 0 0)
(-6.8435e-11 0 0)
(-7.50279e-11 0 0)
(-7.04498e-11 0 0)
(-6.95051e-11 0 0)
(-7.64605e-11 0 0)
(-7.85653e-11 0 0)
(-8.00364e-11 0 0)
(-7.79031e-11 0 0)
(-8.00664e-11 0 0)
(-8.39261e-11 0 0)
(-8.66378e-11 0 0)
(-9.1757e-11 0 0)
(-9.38187e-11 0 0)
(-9.92402e-11 0 0)
(-1.08348e-10 0 0)
(-1.15344e-10 0 0)
(-1.18124e-10 0 0)
(-1.07495e-10 0 0)
(-1.04259e-10 0 0)
(-1.09105e-10 0 0)
(-1.15601e-10 0 0)
(-1.21302e-10 0 0)
(-1.14842e-10 0 0)
(-1.11732e-10 0 0)
(-1.13161e-10 0 0)
(-1.10293e-10 0 0)
(-1.06276e-10 0 0)
(-1.04074e-10 0 0)
(-1.10223e-10 0 0)
(-1.10848e-10 0 0)
(-1.11707e-10 0 0)
(-1.13524e-10 0 0)
(-1.12471e-10 0 0)
(-1.07788e-10 0 0)
(-1.0241e-10 0 0)
(-1.05216e-10 0 0)
(-1.04771e-10 0 0)
(-1.09609e-10 0 0)
(-1.07354e-10 0 0)
(-9.97726e-11 0 0)
(-1.01032e-10 0 0)
(-1.02294e-10 0 0)
(-1.07223e-10 0 0)
(-1.14877e-10 0 0)
(-1.17015e-10 0 0)
(-1.10374e-10 0 0)
(-1.06861e-10 0 0)
(-1.05013e-10 0 0)
(-1.02777e-10 0 0)
(-1.16661e-10 0 0)
(-1.16447e-10 0 0)
(-1.11447e-10 0 0)
(-1.19977e-10 0 0)
(-1.20443e-10 0 0)
(-1.29456e-10 0 0)
(-1.32341e-10 0 0)
(-1.27778e-10 0 0)
(-1.29874e-10 0 0)
(-1.31829e-10 0 0)
(-1.30523e-10 0 0)
(-1.28977e-10 0 0)
(-1.30463e-10 0 0)
(-1.34437e-10 0 0)
(-1.42846e-10 0 0)
(-1.48882e-10 0 0)
(-1.43961e-10 0 0)
(-1.42673e-10 0 0)
(-1.40589e-10 0 0)
(-1.35442e-10 0 0)
(-1.30398e-10 0 0)
(-1.30648e-10 0 0)
(-1.31054e-10 0 0)
(-1.26303e-10 0 0)
(-1.28593e-10 0 0)
(-1.30118e-10 0 0)
(-1.24657e-10 0 0)
(-1.14289e-10 0 0)
(-1.13449e-10 0 0)
(-1.18192e-10 0 0)
(-1.1497e-10 0 0)
(-1.05848e-10 0 0)
(-1.04568e-10 0 0)
(-9.97173e-11 0 0)
(-9.32997e-11 0 0)
(-9.39919e-11 0 0)
(-1.0247e-10 0 0)
(-1.08391e-10 0 0)
(-1.0989e-10 0 0)
(-1.16745e-10 0 0)
(-1.17131e-10 0 0)
(-1.17761e-10 0 0)
(-1.19391e-10 0 0)
(-1.20431e-10 0 0)
(-1.27394e-10 0 0)
(-1.27831e-10 0 0)
(-1.29133e-10 0 0)
(-1.31425e-10 0 0)
(-1.27336e-10 0 0)
(-1.28301e-10 0 0)
(-1.27993e-10 0 0)
(-1.20116e-10 0 0)
(-1.11493e-10 0 0)
(-1.0638e-10 0 0)
(-1.01657e-10 0 0)
(-1.00097e-10 0 0)
(-1.01336e-10 0 0)
(-1.02158e-10 0 0)
(-1.04541e-10 0 0)
(-1.08606e-10 0 0)
(-1.07985e-10 0 0)
(-1.09873e-10 0 0)
(-1.14129e-10 0 0)
(-1.13698e-10 0 0)
(-1.17705e-10 0 0)
(-1.17304e-10 0 0)
(-1.20819e-10 0 0)
(-1.21546e-10 0 0)
(-1.14286e-10 0 0)
(-1.16135e-10 0 0)
(-1.11384e-10 0 0)
(-1.11429e-10 0 0)
(-1.1329e-10 0 0)
(-1.0603e-10 0 0)
(-1.06432e-10 0 0)
(-1.08666e-10 0 0)
(-1.10014e-10 0 0)
(-1.11268e-10 0 0)
(-1.10692e-10 0 0)
(-1.08514e-10 0 0)
(-1.11662e-10 0 0)
(-1.19754e-10 0 0)
(-1.24114e-10 0 0)
(-1.21386e-10 0 0)
(-1.19649e-10 0 0)
(-1.24315e-10 0 0)
(-1.29956e-10 0 0)
(-1.34063e-10 0 0)
(-1.30334e-10 0 0)
(-1.24523e-10 0 0)
(-1.2731e-10 0 0)
(-1.37137e-10 0 0)
(-1.3864e-10 0 0)
(-1.31468e-10 0 0)
(-1.29823e-10 0 0)
(-1.2616e-10 0 0)
(-1.20892e-10 0 0)
(-1.13083e-10 0 0)
(-1.09321e-10 0 0)
(-1.17395e-10 0 0)
(-1.18941e-10 0 0)
(-1.22856e-10 0 0)
(-1.29205e-10 0 0)
(-1.31574e-10 0 0)
(-1.32409e-10 0 0)
(-1.31596e-10 0 0)
(-1.25322e-10 0 0)
(-1.13104e-10 0 0)
(-1.10839e-10 0 0)
(-1.12573e-10 0 0)
(-1.07785e-10 0 0)
(-1.04596e-10 0 0)
(-1.0709e-10 0 0)
(-1.01517e-10 0 0)
(-9.19595e-11 0 0)
(-9.06054e-11 0 0)
(-9.01612e-11 0 0)
(-8.96941e-11 0 0)
(-9.31473e-11 0 0)
(-9.55824e-11 0 0)
(-9.27613e-11 0 0)
(-8.74129e-11 0 0)
(-8.55011e-11 0 0)
(-8.61848e-11 0 0)
(-8.61417e-11 0 0)
(-8.98666e-11 0 0)
(-8.49535e-11 0 0)
(-7.94935e-11 0 0)
(-8.03076e-11 0 0)
(-8.12031e-11 0 0)
(-7.86174e-11 0 0)
(-7.46526e-11 0 0)
(-7.59935e-11 0 0)
(-7.71365e-11 0 0)
(-7.46937e-11 0 0)
(-7.33759e-11 0 0)
(-7.40593e-11 0 0)
(-7.02263e-11 0 0)
(-7.39511e-11 0 0)
(-8.00765e-11 0 0)
(-7.83825e-11 0 0)
(-7.8695e-11 0 0)
(-8.42229e-11 0 0)
(-8.34226e-11 0 0)
(-8.09117e-11 0 0)
(-8.05797e-11 0 0)
(-7.39342e-11 0 0)
(-6.78011e-11 0 0)
(-7.16373e-11 0 0)
(-7.40575e-11 0 0)
(-7.22584e-11 0 0)
(-7.57912e-11 0 0)
(-7.57955e-11 0 0)
(-7.89577e-11 0 0)
(-8.0982e-11 0 0)
(-7.65006e-11 0 0)
(-6.74005e-11 0 0)
(-6.36644e-11 0 0)
(-6.00177e-11 0 0)
(-6.19239e-11 0 0)
(-6.74716e-11 0 0)
(-6.40646e-11 0 0)
(-3.8405e-11 0 0)
(-1.18555e-10 0 0)
(1.49314e-10 0 0)
(-3.37339e-10 0 0)
(3.39609e-10 0 0)
(-2.62163e-10 0 0)
)
;

boundaryField
{
    upDown
    {
        type            empty;
    }
    left
    {
        type            fixedValue;
        value           uniform (0 0 0);
    }
    right
    {
        type            zeroGradient;
    }
    frontAndBack
    {
        type            empty;
    }
}


// ************************************************************************* //
