/*--------------------------------*- C++ -*----------------------------------*\
| =========                 |                                                 |
| \\      /  F ield         | OpenFOAM: The Open Source CFD Toolbox           |
|  \\    /   O peration     | Version:  2112                                  |
|   \\  /    A nd           | Website:  www.openfoam.com                      |
|    \\/     M anipulation  |                                                 |
\*---------------------------------------------------------------------------*/
FoamFile
{
    version     2.0;
    format      ascii;
    arch        "LSB;label=32;scalar=64";
    class       surfaceScalarField;
    location    "0.125";
    object      phi;
}
// * * * * * * * * * * * * * * * * * * * * * * * * * * * * * * * * * * * * * //

dimensions      [0 3 -1 0 0 0 0];

oriented        oriented;

internalField   nonuniform List<scalar> 
511
(
3.98919e-25
1.8918e-25
7.29922e-25
1.0345e-24
1.27709e-24
2.96208e-25
1.04906e-24
2.11937e-25
3.47653e-25
9.61053e-25
6.66834e-25
-8.53377e-26
-1.4868e-25
8.84232e-26
1.25182e-25
7.40851e-25
1.3985e-24
1.1734e-24
7.0785e-25
5.28731e-25
-5.84109e-25
2.20202e-26
-6.58824e-25
2.17736e-26
-1.17178e-25
-6.90652e-25
-9.10288e-25
-7.25513e-25
-9.27136e-25
-9.5644e-26
-1.13499e-24
-1.77959e-24
-1.88258e-24
-2.80318e-24
-1.97058e-24
-1.82349e-24
-2.84083e-24
-3.09491e-24
-3.07247e-24
-2.88963e-24
-2.8266e-24
-1.27548e-23
2.10552e-23
9.92617e-23
5.03266e-23
4.85201e-23
5.68944e-23
1.30793e-23
-4.97776e-23
-4.10554e-23
-1.84714e-22
-8.93227e-23
-2.02889e-22
-8.08444e-23
-1.03442e-22
-1.20175e-22
-2.18677e-22
-1.47733e-22
-1.62632e-22
-2.18613e-22
-1.79122e-22
-1.81363e-22
-1.8062e-22
-1.70387e-22
-2.32245e-22
-2.21939e-22
-2.03216e-22
-1.84347e-22
-1.76773e-22
-1.76022e-22
-1.94527e-22
-1.6108e-22
-2.29835e-22
-1.81024e-22
-2.74916e-22
-2.76882e-22
-2.59004e-22
-2.82938e-22
-2.5002e-22
-3.07281e-22
-1.83664e-22
-3.44387e-22
-2.99458e-22
-2.51071e-22
-2.83807e-22
-1.02014e-22
-2.99672e-22
-2.29328e-22
-2.30237e-22
-2.40164e-22
-2.52089e-22
-2.16044e-22
-2.08136e-22
-1.79966e-22
-1.88591e-22
-9.88825e-23
-1.48514e-23
6.18897e-24
7.14303e-24
2.10466e-23
8.65753e-23
4.57192e-23
-1.50712e-23
8.87782e-23
7.29721e-23
5.59822e-23
1.97614e-23
3.4987e-23
1.00027e-22
6.03956e-23
6.31277e-23
6.61349e-23
-1.57918e-23
5.04725e-23
1.10803e-22
2.34599e-22
1.85984e-22
2.91369e-22
2.3288e-22
3.25197e-22
2.43647e-22
1.75722e-22
1.62558e-22
2.49159e-22
2.47234e-22
2.82799e-22
2.16578e-22
1.66565e-22
2.79212e-22
2.96959e-22
2.09647e-22
1.89021e-22
1.63321e-22
1.48251e-22
1.35601e-22
3.21609e-23
8.84321e-23
9.18903e-23
4.24583e-23
-5.34104e-24
9.74722e-23
4.16394e-23
4.72194e-23
1.45005e-22
-1.11189e-23
6.14855e-23
4.49288e-23
1.61326e-22
1.01075e-22
7.39917e-23
1.39004e-22
4.71029e-23
1.25376e-22
1.32369e-22
1.19392e-23
1.79787e-23
-9.57949e-23
-1.80817e-22
-8.59025e-23
-1.00162e-22
1.79819e-23
-2.55182e-23
8.582e-23
1.14403e-22
2.40791e-23
1.94825e-22
2.02255e-22
1.55551e-22
1.66721e-22
1.25004e-22
3.24238e-23
-5.41394e-23
-3.93655e-23
4.75728e-23
1.67928e-23
8.92855e-23
1.23061e-23
-3.02521e-23
2.05085e-23
2.11008e-24
-2.24485e-23
2.57117e-23
7.96896e-23
5.70762e-23
7.29147e-23
1.22899e-22
9.80292e-24
8.15506e-24
7.63429e-23
1.43453e-22
1.45402e-22
7.98736e-23
1.35665e-22
1.47241e-22
8.74863e-23
1.35534e-22
6.99041e-23
2.39068e-22
2.31099e-22
2.25464e-22
3.25436e-22
2.49376e-22
2.67412e-22
2.36671e-22
3.66606e-22
3.27721e-22
2.81365e-22
2.06014e-22
1.62987e-22
1.87079e-22
2.60288e-22
1.88032e-22
9.31071e-23
5.79137e-23
2.66941e-23
3.74038e-23
-2.4766e-23
-7.24915e-23
-1.12638e-22
-1.82742e-22
-1.39647e-22
-1.32371e-22
-1.55685e-22
-1.60647e-22
-3.15128e-22
-2.98926e-22
-4.15817e-22
-3.56918e-22
-4.04704e-22
-2.86702e-22
-2.13107e-22
-1.32322e-22
-6.39153e-23
-1.09599e-22
-1.77047e-22
-1.71562e-22
-1.40964e-22
-1.96906e-22
-1.4354e-22
-7.69831e-23
2.19429e-23
1.1224e-23
-5.27159e-23
3.2357e-23
2.71322e-23
2.58067e-23
-5.6198e-23
4.60214e-23
2.46331e-23
1.43213e-22
5.19986e-23
-4.51173e-23
-2.62072e-23
-4.71082e-23
-2.77965e-23
3.62952e-23
-2.85315e-23
-1.6162e-22
-1.26341e-22
-8.82201e-23
-6.87372e-23
-2.33573e-22
-1.87982e-22
-2.91949e-22
-4.34113e-22
-2.70327e-22
-3.86262e-22
-3.55664e-22
-4.09334e-22
-4.07722e-22
-3.40492e-22
-3.72918e-22
-3.72805e-22
-2.92024e-22
-4.21473e-22
-3.90811e-22
-3.6325e-22
-4.82583e-22
-4.96178e-22
-4.46137e-22
-4.39027e-22
-3.11072e-22
-3.31147e-22
-3.49727e-22
-2.6672e-22
-1.93802e-22
-1.71922e-22
-2.08563e-22
-7.50049e-23
-9.09709e-23
-1.55223e-22
3.86558e-23
-2.16535e-25
-1.17981e-22
-2.51982e-23
2.18691e-23
2.48333e-23
5.27429e-23
-9.00091e-23
-7.71909e-23
-5.87373e-23
9.78855e-23
1.10782e-22
1.25494e-22
1.79734e-22
1.69269e-22
1.47307e-22
2.71867e-22
3.14446e-22
3.74753e-22
4.89225e-22
4.17328e-22
5.31623e-22
5.43928e-22
5.65338e-22
5.32099e-22
6.69331e-22
7.18455e-22
7.38238e-22
8.59192e-22
8.70471e-22
8.53725e-22
8.35912e-22
9.29961e-22
8.26592e-22
9.36462e-22
8.96848e-22
9.20893e-22
9.79865e-22
9.33731e-22
9.76459e-22
9.00359e-22
8.23567e-22
8.3842e-22
7.60806e-22
7.81731e-22
7.43107e-22
7.05485e-22
6.61337e-22
5.59797e-22
4.0347e-22
4.26083e-22
4.28088e-22
4.39287e-22
4.16072e-22
4.42921e-22
4.48873e-22
4.96021e-22
4.74758e-22
4.5072e-22
3.69229e-22
3.98358e-22
3.87261e-22
2.75179e-22
3.20878e-22
2.89332e-22
3.47324e-22
2.43372e-22
2.00664e-22
3.54331e-22
2.9945e-22
4.67324e-22
4.28041e-22
5.32018e-22
6.06612e-22
6.30675e-22
6.1718e-22
5.95243e-22
4.70958e-22
5.55036e-22
5.09562e-22
5.25938e-22
5.47296e-22
5.49745e-22
5.01913e-22
7.10951e-22
6.96177e-22
7.36346e-22
7.34996e-22
8.32992e-22
8.36615e-22
7.34354e-22
7.60607e-22
6.83377e-22
7.98747e-22
7.08865e-22
6.4291e-22
7.51166e-22
6.63021e-22
6.6705e-22
5.57486e-22
5.50587e-22
5.43777e-22
4.77525e-22
5.11913e-22
4.24498e-22
3.4692e-22
3.99741e-22
3.51011e-22
3.51313e-22
3.5138e-22
3.78289e-22
3.62617e-22
2.45274e-22
3.44911e-22
2.68754e-22
2.30804e-22
2.53613e-22
1.76955e-22
1.27719e-22
1.55204e-22
1.77042e-22
1.88775e-22
1.96756e-22
2.16618e-22
2.36621e-22
2.09446e-22
3.91694e-22
2.98623e-22
3.74536e-22
3.46406e-22
3.12091e-22
4.31009e-22
4.78694e-22
5.12319e-22
3.48758e-22
3.67677e-22
4.51538e-22
5.63249e-22
5.14711e-22
5.33054e-22
4.76528e-22
3.49544e-22
4.26545e-22
4.2519e-22
4.52287e-22
4.83087e-22
5.06802e-22
5.24523e-22
5.84816e-22
6.35065e-22
4.81658e-22
5.33534e-22
5.74916e-22
6.6828e-22
7.11766e-22
8.10782e-22
7.46817e-22
8.53497e-22
8.75251e-22
9.35139e-22
9.39269e-22
9.05368e-22
9.71643e-22
9.02062e-22
9.44079e-22
1.01342e-21
1.01208e-21
9.75102e-22
9.47e-22
1.04649e-21
9.97035e-22
1.10487e-21
1.07921e-21
1.07747e-21
1.07879e-21
1.0444e-21
1.09119e-21
9.76317e-22
1.03605e-21
1.08932e-21
1.13451e-21
1.13007e-21
1.13545e-21
1.17164e-21
1.26025e-21
1.21401e-21
1.2499e-21
1.30269e-21
1.29326e-21
1.25461e-21
1.30182e-21
1.3175e-21
1.34392e-21
1.26352e-21
1.31548e-21
1.24338e-21
1.22013e-21
1.12207e-21
1.13434e-21
1.05213e-21
1.12508e-21
1.19873e-21
1.13616e-21
1.18495e-21
1.23226e-21
1.16757e-21
1.23376e-21
1.19877e-21
1.30121e-21
1.33018e-21
1.33242e-21
1.33391e-21
1.32094e-21
1.36041e-21
1.25453e-21
1.29875e-21
1.34929e-21
1.40497e-21
1.29601e-21
1.37208e-21
)
;

boundaryField
{
    upDown
    {
        type            empty;
        value           nonuniform List<scalar> 0();
    }
    left
    {
        type            calculated;
        value           uniform -1.04694e-31;
    }
    right
    {
        type            calculated;
        value           uniform 1.2394e-21;
    }
    frontAndBack
    {
        type            empty;
        value           nonuniform List<scalar> 0();
    }
}


// ************************************************************************* //
