/*--------------------------------*- C++ -*----------------------------------*\
| =========                 |                                                 |
| \\      /  F ield         | OpenFOAM: The Open Source CFD Toolbox           |
|  \\    /   O peration     | Version:  2112                                  |
|   \\  /    A nd           | Website:  www.openfoam.com                      |
|    \\/     M anipulation  |                                                 |
\*---------------------------------------------------------------------------*/
FoamFile
{
    version     2.0;
    format      ascii;
    arch        "LSB;label=32;scalar=64";
    class       volVectorField;
    location    "0.125";
    object      U;
}
// * * * * * * * * * * * * * * * * * * * * * * * * * * * * * * * * * * * * * //

dimensions      [0 1 -1 0 0 0 0];

internalField   nonuniform List<vector> 
512
(
(-6.96109e-14 0 0)
(2.4524e-14 0 0)
(3.12582e-14 0 0)
(9.3491e-14 0 0)
(1.35821e-13 0 0)
(7.82222e-14 0 0)
(6.31653e-14 0 0)
(6.33581e-14 0 0)
(2.15164e-14 0 0)
(6.69927e-14 0 0)
(8.50189e-14 0 0)
(2.70655e-14 0 0)
(-2.74373e-15 0 0)
(-5.18428e-15 0 0)
(1.60277e-15 0 0)
(4.41286e-14 0 0)
(1.03501e-13 0 0)
(1.34236e-13 0 0)
(1.0159e-13 0 0)
(6.18486e-14 0 0)
(7.45047e-16 0 0)
(-3.48329e-14 0 0)
(-2.16099e-14 0 0)
(-2.74853e-14 0 0)
(-9.50364e-15 0 0)
(-3.45622e-14 0 0)
(-8.29358e-14 0 0)
(-7.78094e-14 0 0)
(-8.80195e-14 0 0)
(-3.59072e-14 0 0)
(-1.28618e-13 0 0)
(-1.50073e-14 0 0)
(3.18315e-13 0 0)
(-1.96968e-12 0 0)
(3.64531e-13 0 0)
(-2.53219e-11 0 0)
(8.58487e-12 0 0)
(1.43566e-10 0 0)
(-2.3398e-10 0 0)
(2.86366e-11 0 0)
(-5.49729e-11 0 0)
(-7.2528e-11 0 0)
(-1.09603e-08 0 0)
(2.30059e-09 0 0)
(2.31101e-08 0 0)
(-1.95513e-08 0 0)
(5.93637e-09 0 0)
(-6.48958e-10 0 0)
(7.9809e-11 0 0)
(1.11683e-10 0 0)
(-9.25119e-11 0 0)
(3.53828e-12 0 0)
(-1.83022e-11 0 0)
(-1.45604e-11 0 0)
(-9.40095e-12 0 0)
(-1.14381e-11 0 0)
(-1.79598e-11 0 0)
(-1.79872e-11 0 0)
(-1.65546e-11 0 0)
(-1.87712e-11 0 0)
(-1.96595e-11 0 0)
(-1.88039e-11 0 0)
(-1.75481e-11 0 0)
(-1.8649e-11 0 0)
(-2.06511e-11 0 0)
(-2.3145e-11 0 0)
(-2.12448e-11 0 0)
(-1.93294e-11 0 0)
(-1.76071e-11 0 0)
(-1.76091e-11 0 0)
(-1.77377e-11 0 0)
(-1.83742e-11 0 0)
(-1.92051e-11 0 0)
(-2.1468e-11 0 0)
(-2.28283e-11 0 0)
(-2.67857e-11 0 0)
(-2.86641e-11 0 0)
(-2.57124e-11 0 0)
(-2.80817e-11 0 0)
(-2.75114e-11 0 0)
(-2.32063e-11 0 0)
(-2.68347e-11 0 0)
(-3.1457e-11 0 0)
(-2.829e-11 0 0)
(-2.73668e-11 0 0)
(-1.87986e-11 0 0)
(-2.00638e-11 0 0)
(-2.65648e-11 0 0)
(-2.20922e-11 0 0)
(-2.388e-11 0 0)
(-2.40813e-11 0 0)
(-2.39073e-11 0 0)
(-2.17308e-11 0 0)
(-1.99679e-11 0 0)
(-1.87494e-11 0 0)
(-1.35263e-11 0 0)
(-6.46997e-12 0 0)
(9.97147e-13 0 0)
(2.44814e-13 0 0)
(1.25078e-12 0 0)
(5.38994e-12 0 0)
(6.85496e-12 0 0)
(2.20737e-12 0 0)
(2.874e-12 0 0)
(9.36405e-12 0 0)
(5.30147e-12 0 0)
(3.25412e-12 0 0)
(3.19046e-12 0 0)
(6.52924e-12 0 0)
(8.25341e-12 0 0)
(6.40543e-12 0 0)
(6.14503e-12 0 0)
(1.93238e-12 0 0)
(2.85227e-12 0 0)
(7.31146e-12 0 0)
(1.73536e-11 0 0)
(2.1554e-11 0 0)
(2.37996e-11 0 0)
(2.64641e-11 0 0)
(2.82707e-11 0 0)
(2.87566e-11 0 0)
(1.97511e-11 0 0)
(1.81136e-11 0 0)
(1.96881e-11 0 0)
(2.49268e-11 0 0)
(2.70957e-11 0 0)
(2.40949e-11 0 0)
(1.92919e-11 0 0)
(2.19642e-11 0 0)
(2.85128e-11 0 0)
(2.57319e-11 0 0)
(2.13449e-11 0 0)
(1.66751e-11 0 0)
(1.58404e-11 0 0)
(1.37446e-11 0 0)
(8.14888e-12 0 0)
(6.22614e-12 0 0)
(8.81758e-12 0 0)
(6.9845e-12 0 0)
(1.35885e-12 0 0)
(5.72946e-12 0 0)
(5.83214e-12 0 0)
(4.91892e-12 0 0)
(9.96544e-12 0 0)
(5.72736e-12 0 0)
(2.7873e-12 0 0)
(3.99006e-12 0 0)
(1.03629e-11 0 0)
(1.40363e-11 0 0)
(8.82366e-12 0 0)
(1.11222e-11 0 0)
(8.73952e-12 0 0)
(8.69732e-12 0 0)
(1.37228e-11 0 0)
(7.53849e-12 0 0)
(2.86133e-12 0 0)
(-4.70606e-12 0 0)
(-1.45301e-11 0 0)
(-1.36151e-11 0 0)
(-1.13577e-11 0 0)
(-3.45588e-12 0 0)
(-8.11391e-13 0 0)
(3.5692e-12 0 0)
(1.08747e-11 0 0)
(6.71618e-12 0 0)
(1.13344e-11 0 0)
(1.96876e-11 0 0)
(1.81165e-11 0 0)
(1.57139e-11 0 0)
(1.48348e-11 0 0)
(7.59624e-12 0 0)
(-8.95671e-13 0 0)
(-4.84989e-12 0 0)
(-3.09074e-13 0 0)
(4.3812e-12 0 0)
(4.56632e-12 0 0)
(4.98577e-12 0 0)
(3.38013e-13 0 0)
(-1.01714e-12 0 0)
(2.32325e-12 0 0)
(-1.9726e-12 0 0)
(2.01317e-13 0 0)
(4.86773e-12 0 0)
(5.99581e-12 0 0)
(7.77563e-12 0 0)
(9.59878e-12 0 0)
(7.03609e-12 0 0)
(3.68913e-13 0 0)
(3.69146e-12 0 0)
(1.1573e-11 0 0)
(1.45479e-11 0 0)
(1.19588e-11 0 0)
(9.16547e-12 0 0)
(1.53164e-11 0 0)
(1.17065e-11 0 0)
(1.07856e-11 0 0)
(1.1253e-11 0 0)
(1.31693e-11 0 0)
(2.41256e-11 0 0)
(2.22467e-11 0 0)
(2.79164e-11 0 0)
(2.9297e-11 0 0)
(2.58805e-11 0 0)
(2.50239e-11 0 0)
(3.01802e-11 0 0)
(3.52e-11 0 0)
(3.03463e-11 0 0)
(2.58492e-11 0 0)
(1.81531e-11 0 0)
(1.70181e-11 0 0)
(2.30366e-11 0 0)
(2.11612e-11 0 0)
(1.37923e-11 0 0)
(7.47782e-12 0 0)
(4.03186e-12 0 0)
(3.95585e-12 0 0)
(1.0163e-12 0 0)
(-3.53411e-12 0 0)
(-1.06773e-11 0 0)
(-1.47819e-11 0 0)
(-1.64055e-11 0 0)
(-1.42398e-11 0 0)
(-1.21673e-11 0 0)
(-1.62472e-11 0 0)
(-2.39676e-11 0 0)
(-3.11191e-11 0 0)
(-3.6603e-11 0 0)
(-3.84041e-11 0 0)
(-3.8491e-11 0 0)
(-3.44379e-11 0 0)
(-2.56185e-11 0 0)
(-1.70048e-11 0 0)
(-9.23993e-12 0 0)
(-9.05475e-12 0 0)
(-1.27959e-11 0 0)
(-1.71691e-11 0 0)
(-1.72937e-11 0 0)
(-1.61869e-11 0 0)
(-1.80528e-11 0 0)
(-1.05069e-11 0 0)
(-2.17337e-12 0 0)
(1.20073e-12 0 0)
(-1.52963e-12 0 0)
(-1.29649e-12 0 0)
(2.76685e-12 0 0)
(2.44418e-12 0 0)
(-2.43246e-12 0 0)
(-1.01278e-12 0 0)
(4.99644e-12 0 0)
(8.01545e-12 0 0)
(1.00436e-11 0 0)
(2.05223e-13 0 0)
(-4.01196e-12 0 0)
(-3.64646e-12 0 0)
(-3.42517e-12 0 0)
(7.32317e-13 0 0)
(1.16179e-12 0 0)
(-9.51929e-12 0 0)
(-1.47865e-11 0 0)
(-1.07014e-11 0 0)
(-6.725e-12 0 0)
(-1.48882e-11 0 0)
(-2.14601e-11 0 0)
(-2.37823e-11 0 0)
(-3.76248e-11 0 0)
(-3.57432e-11 0 0)
(-3.16284e-11 0 0)
(-3.77542e-11 0 0)
(-3.85324e-11 0 0)
(-4.07504e-11 0 0)
(-3.80797e-11 0 0)
(-3.53838e-11 0 0)
(-3.65569e-11 0 0)
(-3.26309e-11 0 0)
(-3.65875e-11 0 0)
(-3.96198e-11 0 0)
(-3.83207e-11 0 0)
(-4.24189e-11 0 0)
(-4.88018e-11 0 0)
(-4.80085e-11 0 0)
(-4.37153e-11 0 0)
(-3.87981e-11 0 0)
(-3.15077e-11 0 0)
(-3.44227e-11 0 0)
(-3.031e-11 0 0)
(-2.31033e-11 0 0)
(-1.83813e-11 0 0)
(-1.86439e-11 0 0)
(-1.51277e-11 0 0)
(-7.74121e-12 0 0)
(-1.31016e-11 0 0)
(-4.92185e-12 0 0)
(2.28276e-12 0 0)
(-5.04835e-12 0 0)
(-7.74025e-12 0 0)
(-9.48522e-14 0 0)
(1.7506e-12 0 0)
(3.21392e-12 0 0)
(-3.80318e-13 0 0)
(-9.83323e-12 0 0)
(-5.67408e-12 0 0)
(2.08928e-12 0 0)
(9.39418e-12 0 0)
(1.27645e-11 0 0)
(1.48327e-11 0 0)
(1.86909e-11 0 0)
(1.50162e-11 0 0)
(1.97352e-11 0 0)
(2.94235e-11 0 0)
(3.33865e-11 0 0)
(4.41378e-11 0 0)
(4.60654e-11 0 0)
(4.77624e-11 0 0)
(5.34898e-11 0 0)
(5.5005e-11 0 0)
(5.55623e-11 0 0)
(5.86498e-11 0 0)
(6.99998e-11 0 0)
(7.37624e-11 0 0)
(7.90329e-11 0 0)
(8.77982e-11 0 0)
(8.61533e-11 0 0)
(8.46671e-11 0 0)
(8.78052e-11 0 0)
(8.73793e-11 0 0)
(8.87528e-11 0 0)
(9.05232e-11 0 0)
(9.14121e-11 0 0)
(9.53482e-11 0 0)
(9.55548e-11 0 0)
(9.62574e-11 0 0)
(9.37425e-11 0 0)
(8.66224e-11 0 0)
(8.3092e-11 0 0)
(7.95197e-11 0 0)
(7.79313e-11 0 0)
(7.5768e-11 0 0)
(7.27821e-11 0 0)
(6.83903e-11 0 0)
(6.12239e-11 0 0)
(4.80924e-11 0 0)
(4.03921e-11 0 0)
(4.2255e-11 0 0)
(4.33625e-11 0 0)
(4.19232e-11 0 0)
(4.37166e-11 0 0)
(4.50871e-11 0 0)
(4.72615e-11 0 0)
(4.92264e-11 0 0)
(4.58658e-11 0 0)
(4.15579e-11 0 0)
(3.77325e-11 0 0)
(3.92167e-11 0 0)
(3.28683e-11 0 0)
(3.02528e-11 0 0)
(3.10582e-11 0 0)
(3.21733e-11 0 0)
(2.921e-11 0 0)
(2.22477e-11 0 0)
(2.59074e-11 0 0)
(3.18683e-11 0 0)
(3.8394e-11 0 0)
(4.44016e-11 0 0)
(4.9229e-11 0 0)
(5.72418e-11 0 0)
(6.12158e-11 0 0)
(6.25611e-11 0 0)
(6.06615e-11 0 0)
(5.30157e-11 0 0)
(5.19877e-11 0 0)
(5.3648e-11 0 0)
(5.09136e-11 0 0)
(5.42759e-11 0 0)
(5.5175e-11 0 0)
(5.19845e-11 0 0)
(6.17144e-11 0 0)
(7.00974e-11 0 0)
(7.15714e-11 0 0)
(7.33416e-11 0 0)
(7.87278e-11 0 0)
(8.25075e-11 0 0)
(7.97413e-11 0 0)
(7.4922e-11 0 0)
(7.19115e-11 0 0)
(7.52014e-11 0 0)
(7.41084e-11 0 0)
(6.77359e-11 0 0)
(6.87097e-11 0 0)
(7.10149e-11 0 0)
(6.68795e-11 0 0)
(6.11693e-11 0 0)
(5.56198e-11 0 0)
(5.4642e-11 0 0)
(5.11775e-11 0 0)
(4.97621e-11 0 0)
(4.73264e-11 0 0)
(3.75732e-11 0 0)
(3.70316e-11 0 0)
(3.77753e-11 0 0)
(3.4848e-11 0 0)
(3.56365e-11 0 0)
(3.70708e-11 0 0)
(3.6231e-11 0 0)
(3.07036e-11 0 0)
(2.90857e-11 0 0)
(3.1813e-11 0 0)
(2.48005e-11 0 0)
(2.38589e-11 0 0)
(2.15776e-11 0 0)
(1.38825e-11 0 0)
(1.4235e-11 0 0)
(1.68038e-11 0 0)
(1.86796e-11 0 0)
(1.90774e-11 0 0)
(2.03469e-11 0 0)
(2.28261e-11 0 0)
(2.19954e-11 0 0)
(3.04109e-11 0 0)
(3.45467e-11 0 0)
(3.3192e-11 0 0)
(3.64924e-11 0 0)
(3.25691e-11 0 0)
(3.80118e-11 0 0)
(4.55411e-11 0 0)
(5.00532e-11 0 0)
(4.19671e-11 0 0)
(3.56563e-11 0 0)
(4.07415e-11 0 0)
(4.942e-11 0 0)
(5.52214e-11 0 0)
(5.31531e-11 0 0)
(5.06704e-11 0 0)
(4.20592e-11 0 0)
(3.84353e-11 0 0)
(4.15859e-11 0 0)
(4.34481e-11 0 0)
(4.70093e-11 0 0)
(4.97525e-11 0 0)
(5.13188e-11 0 0)
(5.64547e-11 0 0)
(6.02867e-11 0 0)
(5.62094e-11 0 0)
(5.07834e-11 0 0)
(5.5775e-11 0 0)
(6.2152e-11 0 0)
(6.86334e-11 0 0)
(7.64421e-11 0 0)
(7.78488e-11 0 0)
(7.93802e-11 0 0)
(8.59539e-11 0 0)
(9.18918e-11 0 0)
(9.23406e-11 0 0)
(9.2866e-11 0 0)
(9.3646e-11 0 0)
(9.25239e-11 0 0)
(9.33983e-11 0 0)
(9.79219e-11 0 0)
(1.02189e-10 0 0)
(1.0015e-10 0 0)
(9.50192e-11 0 0)
(9.97522e-11 0 0)
(1.0145e-10 0 0)
(1.05756e-10 0 0)
(1.10215e-10 0 0)
(1.08205e-10 0 0)
(1.0729e-10 0 0)
(1.05527e-10 0 0)
(1.06296e-10 0 0)
(1.03702e-10 0 0)
(9.99418e-11 0 0)
(1.06909e-10 0 0)
(1.11095e-10 0 0)
(1.1316e-10 0 0)
(1.1278e-10 0 0)
(1.14243e-10 0 0)
(1.22871e-10 0 0)
(1.23895e-10 0 0)
(1.24189e-10 0 0)
(1.28372e-10 0 0)
(1.29593e-10 0 0)
(1.26411e-10 0 0)
(1.27161e-10 0 0)
(1.3063e-10 0 0)
(1.32799e-10 0 0)
(1.30694e-10 0 0)
(1.30017e-10 0 0)
(1.27568e-10 0 0)
(1.23904e-10 0 0)
(1.174e-10 0 0)
(1.12384e-10 0 0)
(1.09043e-10 0 0)
(1.09476e-10 0 0)
(1.15536e-10 0 0)
(1.16419e-10 0 0)
(1.15961e-10 0 0)
(1.21101e-10 0 0)
(1.19989e-10 0 0)
(1.21534e-10 0 0)
(1.17349e-10 0 0)
(1.30129e-10 0 0)
(1.30185e-10 0 0)
(7.36095e-11 0 0)
(4.72978e-10 0 0)
(-7.88619e-10 0 0)
(1.33033e-09 0 0)
(-1.07934e-10 0 0)
(-1.9048e-08 0 0)
(9.00741e-08 0 0)
(-2.17393e-07 0 0)
(3.30628e-07 0 0)
(-3.75903e-07 0 0)
(1.93486e-07 0 0)
)
;

boundaryField
{
    upDown
    {
        type            empty;
    }
    left
    {
        type            fixedValue;
        value           uniform (0 0 0);
    }
    right
    {
        type            zeroGradient;
    }
    frontAndBack
    {
        type            empty;
    }
}


// ************************************************************************* //
