/*--------------------------------*- C++ -*----------------------------------*\
| =========                 |                                                 |
| \\      /  F ield         | OpenFOAM: The Open Source CFD Toolbox           |
|  \\    /   O peration     | Version:  2112                                  |
|   \\  /    A nd           | Website:  www.openfoam.com                      |
|    \\/     M anipulation  |                                                 |
\*---------------------------------------------------------------------------*/
FoamFile
{
    version     2.0;
    format      ascii;
    arch        "LSB;label=32;scalar=64";
    class       surfaceScalarField;
    location    "0.1";
    object      phi;
}
// * * * * * * * * * * * * * * * * * * * * * * * * * * * * * * * * * * * * * //

dimensions      [0 3 -1 0 0 0 0];

oriented        oriented;

internalField   nonuniform List<scalar> 
511
(
9.0836e-26
6.50057e-26
-5.63468e-25
3.3729e-26
6.87739e-25
-2.63679e-26
1.74584e-26
-6.55487e-27
3.32381e-25
2.45708e-25
4.95464e-25
6.76582e-25
5.90235e-25
1.03084e-24
1.56906e-24
1.05616e-24
1.39788e-24
2.20058e-24
2.59631e-24
2.75773e-24
2.73656e-24
2.17195e-24
3.0108e-24
3.13592e-24
3.23426e-24
2.59526e-24
2.81641e-24
2.2144e-24
3.32614e-24
2.84366e-24
2.74944e-24
2.82137e-24
2.38361e-24
2.34517e-24
2.83803e-24
3.47297e-24
1.63297e-23
3.96295e-23
7.52302e-23
-1.07831e-22
-1.26495e-22
-2.53392e-22
-2.36905e-22
-1.61976e-22
-2.79935e-22
-2.84372e-22
-2.67334e-22
-2.09786e-22
-2.04439e-22
-3.49863e-22
-3.46327e-22
-2.96985e-22
-3.56254e-22
-3.69837e-22
-3.89848e-22
-4.0536e-22
-4.63049e-22
-4.41667e-22
-3.68147e-22
-4.41514e-22
-4.70202e-22
-4.18627e-22
-4.94652e-22
-4.56622e-22
-3.69922e-22
-3.86498e-22
-4.45301e-22
-5.2659e-22
-5.471e-22
-4.63677e-22
-6.44229e-22
-5.95675e-22
-6.41985e-22
-7.32559e-22
-6.748e-22
-7.19456e-22
-6.54877e-22
-6.1939e-22
-5.71894e-22
-4.83826e-22
-4.46442e-22
-4.80325e-22
-2.54679e-22
-3.41848e-22
-3.0087e-22
-3.76714e-22
-3.56976e-22
-3.3285e-22
-2.43421e-22
-2.53041e-22
-2.58392e-22
-2.67212e-22
-2.99214e-22
-3.18327e-22
-3.89526e-22
-3.53296e-22
-3.10365e-22
-2.76473e-22
-3.13625e-22
-3.64638e-22
-3.4497e-22
-4.1669e-22
-4.29652e-22
-4.16548e-22
-3.07808e-22
-2.54386e-22
-3.61828e-22
-3.60828e-22
-4.59087e-22
-3.43481e-22
-2.97775e-22
-4.60332e-22
-4.13102e-22
-3.18363e-22
-3.15704e-22
-3.79121e-22
-2.84856e-22
-1.72606e-22
-4.93308e-23
-1.59375e-23
1.21671e-22
9.54493e-23
4.59292e-23
7.50661e-23
-6.94869e-23
-4.71077e-23
8.72018e-23
4.60104e-23
5.05159e-23
6.32243e-23
8.86048e-23
3.1569e-23
4.63748e-23
4.30246e-23
7.95756e-23
1.10837e-22
2.4361e-22
1.09466e-22
2.47078e-22
1.77236e-22
1.43768e-22
1.19142e-22
5.83851e-23
4.56369e-23
8.61366e-24
1.10452e-22
6.40151e-23
7.34425e-23
1.74111e-22
8.86295e-23
1.51881e-22
1.44252e-22
1.75737e-22
1.38097e-22
3.15974e-23
3.55726e-23
1.24932e-22
1.20956e-22
2.259e-22
2.82886e-22
2.76164e-22
2.7601e-22
2.60804e-22
3.5606e-22
2.81354e-22
4.13679e-22
3.28741e-22
3.45399e-22
3.07231e-22
3.23992e-22
3.88079e-22
2.88302e-22
3.5273e-22
4.14238e-22
4.181e-22
4.97477e-22
4.28006e-22
4.60604e-22
4.24351e-22
4.69096e-22
4.03395e-22
4.87802e-22
3.6946e-22
3.09644e-22
2.79202e-22
2.18179e-22
3.3021e-22
3.75575e-22
3.19161e-22
3.47454e-22
2.67945e-22
1.96188e-22
1.81619e-22
1.18538e-22
3.20048e-22
2.62669e-22
3.53328e-22
3.1977e-22
3.53255e-22
2.85776e-22
3.03103e-22
2.43378e-22
1.18132e-22
1.73558e-22
1.59772e-22
1.36986e-22
1.66381e-22
1.97767e-22
1.22768e-22
1.035e-22
1.39929e-22
1.3814e-22
8.98066e-23
1.25406e-22
6.09608e-23
2.60016e-22
1.9416e-22
5.36495e-23
-5.27449e-24
6.63284e-23
-2.3664e-23
3.6704e-23
2.34716e-23
-6.42004e-24
8.57278e-23
1.08795e-22
7.1391e-23
5.32978e-23
3.72532e-23
7.94575e-24
-5.91138e-23
-5.03742e-23
-5.05875e-23
-1.43582e-22
-1.9683e-22
-1.41933e-22
-1.76755e-22
-2.51662e-22
-2.86618e-22
-2.21587e-22
-3.03961e-22
-2.76245e-22
-2.4599e-22
-3.55062e-22
-2.438e-22
-2.51964e-22
-3.06601e-22
-3.229e-22
-2.7398e-22
-3.45708e-22
-3.48703e-22
-3.56565e-22
-2.84982e-22
-2.89846e-22
-3.05722e-22
-2.53651e-22
-2.0893e-22
-1.72544e-22
-2.29094e-22
-1.86371e-22
-1.43181e-22
-1.03256e-22
-4.41674e-23
-9.43295e-23
-1.81422e-22
-2.15544e-22
-2.42051e-22
-2.44644e-22
-3.20839e-22
-3.39496e-22
-3.05757e-22
-3.55507e-22
-3.42875e-22
-2.9509e-22
-2.41342e-22
-2.4671e-22
-3.13145e-22
-3.26191e-22
-4.53943e-22
-3.95781e-22
-3.10167e-22
-3.92038e-22
-3.67285e-22
-3.24959e-22
-3.47968e-22
-4.05595e-22
-4.07299e-22
-3.40235e-22
-3.18635e-22
-1.44365e-22
-1.91636e-22
-2.79308e-22
-2.58381e-22
-2.29243e-22
-2.46074e-22
-2.03458e-22
-2.7052e-22
-3.33724e-22
-3.12425e-22
-2.63048e-22
-3.2997e-22
-4.2756e-22
-3.61195e-22
-4.91619e-22
-4.10988e-22
-4.8991e-22
-4.68104e-22
-6.27288e-22
-5.56268e-22
-4.64525e-22
-4.00467e-22
-3.19017e-22
-4.27063e-22
-3.39452e-22
-4.43309e-22
-4.89822e-22
-4.73122e-22
-4.13354e-22
-4.61234e-22
-5.7876e-22
-4.91863e-22
-6.68822e-22
-6.9929e-22
-5.03259e-22
-4.85363e-22
-4.57897e-22
-4.89102e-22
-3.62132e-22
-4.5635e-22
-2.43364e-22
-2.9248e-22
-2.02339e-22
-2.32445e-22
-1.99842e-22
-1.72196e-22
-1.3108e-22
-7.4728e-23
-1.21185e-22
-7.3669e-23
-1.41154e-22
-1.54367e-22
-6.79741e-23
-1.38079e-22
-1.02391e-22
-1.29645e-22
-4.88947e-23
-7.66886e-23
1.22031e-22
2.02724e-23
6.21046e-23
4.60969e-23
1.42019e-22
4.92228e-23
6.59293e-23
-1.04347e-23
-1.49067e-22
-1.12848e-22
-7.14097e-23
-8.23874e-23
7.00007e-23
-7.24336e-24
-3.17737e-23
-2.98674e-24
9.27378e-23
5.33247e-23
9.06757e-24
-2.59903e-23
-1.24847e-22
-6.58936e-23
4.82443e-23
5.68622e-23
1.10845e-23
7.1901e-23
1.39306e-22
1.95724e-22
2.40034e-22
1.85927e-22
3.0593e-22
3.70817e-22
3.45997e-22
2.77707e-22
4.17442e-22
4.9768e-22
3.84924e-22
3.58921e-22
4.32159e-22
3.46798e-22
2.33765e-22
1.54657e-22
2.74485e-22
2.31559e-22
3.02172e-22
1.62619e-22
1.97248e-22
2.03915e-22
1.564e-22
1.76808e-22
2.94903e-22
3.48451e-22
4.59445e-22
3.12191e-22
2.89554e-22
3.5301e-22
2.94159e-22
2.72456e-22
1.93615e-22
1.40537e-22
1.032e-22
2.25672e-22
2.54453e-22
2.83168e-22
3.55772e-22
3.02696e-22
2.9014e-22
3.81995e-22
3.0863e-22
2.25954e-22
2.28186e-22
3.1531e-22
1.93969e-22
1.87976e-22
1.78197e-22
2.82745e-22
2.36268e-22
3.02899e-22
3.25934e-22
4.01664e-22
3.24649e-22
3.76676e-22
3.12565e-22
3.85109e-22
4.54326e-22
3.82026e-22
3.81293e-22
3.32632e-22
3.47792e-22
3.02176e-22
3.41779e-22
2.57783e-22
1.17072e-22
2.16177e-22
1.75597e-22
1.34608e-22
2.37273e-22
1.57255e-22
1.71719e-22
1.92846e-22
1.06366e-22
1.79725e-22
1.61857e-22
1.39254e-23
2.08393e-22
1.46153e-22
9.95393e-23
8.77584e-23
1.85716e-22
8.36117e-23
1.63751e-22
1.7368e-22
1.33084e-22
4.18138e-23
-3.07768e-24
5.53761e-23
-1.54427e-24
1.07153e-22
6.94236e-23
1.1824e-22
1.11646e-22
1.23374e-22
5.27272e-23
4.1228e-24
1.26423e-22
4.60803e-23
2.0399e-23
6.12484e-23
4.42884e-23
4.79472e-23
2.28982e-23
1.02301e-22
6.77552e-23
2.96013e-23
8.38003e-23
8.67882e-23
2.43833e-24
4.00375e-23
1.86345e-24
8.71362e-23
1.18876e-23
-7.18145e-23
7.04681e-23
7.34707e-23
6.60316e-23
1.55365e-22
4.6997e-23
4.25706e-23
5.09298e-24
8.58472e-23
5.75133e-23
1.3179e-22
1.9725e-22
1.57967e-22
2.24381e-22
1.92543e-22
2.57686e-22
2.773e-22
2.10546e-22
2.65777e-22
1.49562e-22
2.25312e-22
1.50728e-22
2.86383e-22
)
;

boundaryField
{
    upDown
    {
        type            empty;
        value           nonuniform List<scalar> 0();
    }
    left
    {
        type            calculated;
        value           uniform -1.04694e-31;
    }
    right
    {
        type            calculated;
        value           uniform 2.56422e-22;
    }
    frontAndBack
    {
        type            empty;
        value           nonuniform List<scalar> 0();
    }
}


// ************************************************************************* //
