/*--------------------------------*- C++ -*----------------------------------*\
| =========                 |                                                 |
| \\      /  F ield         | OpenFOAM: The Open Source CFD Toolbox           |
|  \\    /   O peration     | Version:  2112                                  |
|   \\  /    A nd           | Website:  www.openfoam.com                      |
|    \\/     M anipulation  |                                                 |
\*---------------------------------------------------------------------------*/
FoamFile
{
    version     2.0;
    format      ascii;
    arch        "LSB;label=32;scalar=64";
    class       volVectorField;
    location    "0.1";
    object      U;
}
// * * * * * * * * * * * * * * * * * * * * * * * * * * * * * * * * * * * * * //

dimensions      [0 1 -1 0 0 0 0];

internalField   nonuniform List<vector> 
512
(
(4.39188e-14 0 0)
(-4.27954e-15 0 0)
(-1.89369e-14 0 0)
(-3.17501e-14 0 0)
(3.8512e-14 0 0)
(3.69806e-14 0 0)
(-8.78842e-16 0 0)
(3.75002e-15 0 0)
(1.62549e-14 0 0)
(2.95414e-14 0 0)
(3.96613e-14 0 0)
(5.94623e-14 0 0)
(5.62713e-14 0 0)
(8.25185e-14 0 0)
(1.22457e-13 0 0)
(1.29905e-13 0 0)
(1.2213e-13 0 0)
(1.78094e-13 0 0)
(2.42505e-13 0 0)
(2.74437e-13 0 0)
(2.7943e-13 0 0)
(2.45486e-13 0 0)
(2.73927e-13 0 0)
(2.86284e-13 0 0)
(2.98365e-13 0 0)
(5.19856e-13 0 0)
(-8.94119e-13 0 0)
(2.77601e-12 0 0)
(-1.08187e-12 0 0)
(-4.41632e-12 0 0)
(7.43471e-11 0 0)
(-3.06673e-10 0 0)
(5.58318e-10 0 0)
(-4.70891e-10 0 0)
(6.31212e-11 0 0)
(5.00938e-10 0 0)
(-1.72159e-09 0 0)
(1.31338e-08 0 0)
(-3.16167e-08 0 0)
(3.61138e-08 0 0)
(-2.56866e-08 0 0)
(1.21536e-08 0 0)
(-2.9781e-09 0 0)
(3.25414e-11 0 0)
(9.54654e-11 0 0)
(-1.37699e-10 0 0)
(2.07856e-11 0 0)
(-3.34956e-11 0 0)
(-1.92735e-11 0 0)
(-2.69796e-11 0 0)
(-3.49079e-11 0 0)
(-3.17104e-11 0 0)
(-3.31272e-11 0 0)
(-3.53299e-11 0 0)
(-3.87048e-11 0 0)
(-3.92016e-11 0 0)
(-4.46556e-11 0 0)
(-4.50876e-11 0 0)
(-4.06028e-11 0 0)
(-4.10367e-11 0 0)
(-4.46234e-11 0 0)
(-4.4123e-11 0 0)
(-4.49674e-11 0 0)
(-4.85227e-11 0 0)
(-4.02241e-11 0 0)
(-3.90581e-11 0 0)
(-4.08886e-11 0 0)
(-4.81696e-11 0 0)
(-5.45809e-11 0 0)
(-4.93964e-11 0 0)
(-5.66472e-11 0 0)
(-6.15356e-11 0 0)
(-6.28871e-11 0 0)
(-6.83807e-11 0 0)
(-7.00458e-11 0 0)
(-7.0204e-11 0 0)
(-6.85416e-11 0 0)
(-6.48652e-11 0 0)
(-5.9084e-11 0 0)
(-5.26541e-11 0 0)
(-4.66788e-11 0 0)
(-4.53319e-11 0 0)
(-3.74941e-11 0 0)
(-2.92484e-11 0 0)
(-3.13307e-11 0 0)
(-3.39155e-11 0 0)
(-3.62839e-11 0 0)
(-3.50298e-11 0 0)
(-2.90479e-11 0 0)
(-2.48609e-11 0 0)
(-2.57433e-11 0 0)
(-2.57824e-11 0 0)
(-2.7886e-11 0 0)
(-3.18795e-11 0 0)
(-3.45062e-11 0 0)
(-3.79607e-11 0 0)
(-3.27696e-11 0 0)
(-2.93035e-11 0 0)
(-2.86397e-11 0 0)
(-3.40124e-11 0 0)
(-3.63433e-11 0 0)
(-3.78713e-11 0 0)
(-4.31839e-11 0 0)
(-4.24536e-11 0 0)
(-3.57799e-11 0 0)
(-2.82113e-11 0 0)
(-3.06818e-11 0 0)
(-3.62353e-11 0 0)
(-4.14521e-11 0 0)
(-3.95596e-11 0 0)
(-3.18508e-11 0 0)
(-3.81518e-11 0 0)
(-4.33226e-11 0 0)
(-3.68686e-11 0 0)
(-3.20268e-11 0 0)
(-3.37611e-11 0 0)
(-3.40527e-11 0 0)
(-2.29878e-11 0 0)
(-1.1674e-11 0 0)
(-3.19931e-12 0 0)
(5.15525e-12 0 0)
(1.1244e-11 0 0)
(7.84595e-12 0 0)
(6.6299e-12 0 0)
(5.19456e-13 0 0)
(-6.47371e-12 0 0)
(2.19556e-12 0 0)
(7.31e-12 0 0)
(4.60205e-12 0 0)
(5.36282e-12 0 0)
(7.4245e-12 0 0)
(4.92916e-12 0 0)
(4.10085e-12 0 0)
(5.25532e-12 0 0)
(5.91751e-12 0 0)
(9.92415e-12 0 0)
(1.76147e-11 0 0)
(1.77971e-11 0 0)
(1.7335e-11 0 0)
(2.1562e-11 0 0)
(1.66785e-11 0 0)
(1.18576e-11 0 0)
(9.46812e-12 0 0)
(4.63212e-12 0 0)
(2.00104e-12 0 0)
(5.08882e-12 0 0)
(8.98333e-12 0 0)
(6.61516e-12 0 0)
(1.30764e-11 0 0)
(1.39473e-11 0 0)
(1.18619e-11 0 0)
(1.56576e-11 0 0)
(1.61287e-11 0 0)
(1.6077e-11 0 0)
(9.04168e-12 0 0)
(2.50281e-12 0 0)
(7.25649e-12 0 0)
(1.25114e-11 0 0)
(1.68252e-11 0 0)
(2.57809e-11 0 0)
(2.82205e-11 0 0)
(2.6941e-11 0 0)
(2.5614e-11 0 0)
(3.17634e-11 0 0)
(3.17312e-11 0 0)
(3.48326e-11 0 0)
(3.74636e-11 0 0)
(3.35053e-11 0 0)
(3.29274e-11 0 0)
(3.12411e-11 0 0)
(3.6127e-11 0 0)
(3.3627e-11 0 0)
(3.20437e-11 0 0)
(3.85755e-11 0 0)
(4.14808e-11 0 0)
(4.48555e-11 0 0)
(4.65547e-11 0 0)
(4.44849e-11 0 0)
(4.48484e-11 0 0)
(4.53809e-11 0 0)
(4.30751e-11 0 0)
(4.56179e-11 0 0)
(4.13565e-11 0 0)
(3.5034e-11 0 0)
(2.97615e-11 0 0)
(2.32103e-11 0 0)
(2.84454e-11 0 0)
(3.48725e-11 0 0)
(3.50947e-11 0 0)
(3.41048e-11 0 0)
(2.99457e-11 0 0)
(2.36432e-11 0 0)
(1.83148e-11 0 0)
(1.52134e-11 0 0)
(2.19511e-11 0 0)
(2.85307e-11 0 0)
(3.23121e-11 0 0)
(3.29089e-11 0 0)
(3.36209e-11 0 0)
(3.18136e-11 0 0)
(2.80596e-11 0 0)
(2.70435e-11 0 0)
(1.91336e-11 0 0)
(1.5221e-11 0 0)
(1.67032e-11 0 0)
(1.5174e-11 0 0)
(1.49436e-11 0 0)
(1.84096e-11 0 0)
(1.58499e-11 0 0)
(1.12021e-11 0 0)
(1.22954e-11 0 0)
(1.30393e-11 0 0)
(1.17997e-11 0 0)
(1.14554e-11 0 0)
(8.40116e-12 0 0)
(1.69565e-11 0 0)
(2.18811e-11 0 0)
(1.16568e-11 0 0)
(4.37306e-12 0 0)
(2.43372e-12 0 0)
(2.89306e-12 0 0)
(3.13041e-13 0 0)
(1.88617e-12 0 0)
(1.5728e-13 0 0)
(3.70621e-12 0 0)
(1.10141e-11 0 0)
(8.01871e-12 0 0)
(6.19435e-12 0 0)
(4.53242e-12 0 0)
(2.77373e-12 0 0)
(-1.04019e-12 0 0)
(-5.63304e-12 0 0)
(-4.3685e-12 0 0)
(-1.11874e-11 0 0)
(-1.73906e-11 0 0)
(-1.67446e-11 0 0)
(-1.68648e-11 0 0)
(-2.12106e-11 0 0)
(-2.63223e-11 0 0)
(-2.57867e-11 0 0)
(-2.65429e-11 0 0)
(-2.8805e-11 0 0)
(-2.65212e-11 0 0)
(-3.0691e-11 0 0)
(-2.97336e-11 0 0)
(-2.43223e-11 0 0)
(-2.85691e-11 0 0)
(-3.02505e-11 0 0)
(-2.8889e-11 0 0)
(-3.12722e-11 0 0)
(-3.50819e-11 0 0)
(-3.48764e-11 0 0)
(-3.37937e-11 0 0)
(-2.83403e-11 0 0)
(-2.97833e-11 0 0)
(-2.86389e-11 0 0)
(-2.20912e-11 0 0)
(-1.96946e-11 0 0)
(-2.01796e-11 0 0)
(-2.02008e-11 0 0)
(-1.6996e-11 0 0)
(-1.18619e-11 0 0)
(-6.14245e-12 0 0)
(-7.91372e-12 0 0)
(-1.3597e-11 0 0)
(-2.01137e-11 0 0)
(-2.27756e-11 0 0)
(-2.31382e-11 0 0)
(-2.85026e-11 0 0)
(-3.28801e-11 0 0)
(-3.25123e-11 0 0)
(-3.39352e-11 0 0)
(-3.42977e-11 0 0)
(-3.19272e-11 0 0)
(-2.69424e-11 0 0)
(-2.38978e-11 0 0)
(-2.83128e-11 0 0)
(-3.15251e-11 0 0)
(-3.88563e-11 0 0)
(-4.41421e-11 0 0)
(-3.5077e-11 0 0)
(-3.49809e-11 0 0)
(-3.79109e-11 0 0)
(-3.29685e-11 0 0)
(-3.46723e-11 0 0)
(-3.76437e-11 0 0)
(-4.07571e-11 0 0)
(-3.79764e-11 0 0)
(-3.2866e-11 0 0)
(-2.2851e-11 0 0)
(-1.66831e-11 0 0)
(-2.40716e-11 0 0)
(-2.67137e-11 0 0)
(-2.47428e-11 0 0)
(-2.39033e-11 0 0)
(-2.25872e-11 0 0)
(-2.35471e-11 0 0)
(-3.04081e-11 0 0)
(-3.11163e-11 0 0)
(-2.86485e-11 0 0)
(-2.93994e-11 0 0)
(-3.6599e-11 0 0)
(-4.08948e-11 0 0)
(-4.21536e-11 0 0)
(-4.51429e-11 0 0)
(-4.52154e-11 0 0)
(-4.73262e-11 0 0)
(-5.45304e-11 0 0)
(-6.01135e-11 0 0)
(-5.12212e-11 0 0)
(-4.42497e-11 0 0)
(-3.59962e-11 0 0)
(-3.55995e-11 0 0)
(-3.92252e-11 0 0)
(-3.94016e-11 0 0)
(-4.66845e-11 0 0)
(-4.82665e-11 0 0)
(-4.40793e-11 0 0)
(-4.35882e-11 0 0)
(-5.15335e-11 0 0)
(-5.35491e-11 0 0)
(-5.81357e-11 0 0)
(-6.75413e-11 0 0)
(-6.17979e-11 0 0)
(-4.96655e-11 0 0)
(-4.7039e-11 0 0)
(-4.7405e-11 0 0)
(-4.23302e-11 0 0)
(-4.06128e-11 0 0)
(-3.49911e-11 0 0)
(-2.67721e-11 0 0)
(-2.37809e-11 0 0)
(-2.19788e-11 0 0)
(-2.18674e-11 0 0)
(-1.82453e-11 0 0)
(-1.60536e-11 0 0)
(-1.02337e-11 0 0)
(-9.92853e-12 0 0)
(-9.16702e-12 0 0)
(-1.07102e-11 0 0)
(-1.50912e-11 0 0)
(-1.03438e-11 0 0)
(-1.1192e-11 0 0)
(-1.11297e-11 0 0)
(-1.19954e-11 0 0)
(-8.71088e-12 0 0)
(-6.14429e-12 0 0)
(1.17473e-12 0 0)
(7.2804e-12 0 0)
(5.00371e-12 0 0)
(4.54676e-12 0 0)
(9.97439e-12 0 0)
(1.05539e-11 0 0)
(4.58854e-12 0 0)
(3.23425e-12 0 0)
(-7.96828e-12 0 0)
(-1.39082e-11 0 0)
(-8.58414e-12 0 0)
(-8.41795e-12 0 0)
(-4.94072e-14 0 0)
(3.61215e-12 0 0)
(-2.64379e-12 0 0)
(-9.0726e-13 0 0)
(2.80637e-12 0 0)
(7.87134e-12 0 0)
(2.7958e-12 0 0)
(-9.11033e-13 0 0)
(-7.0785e-12 0 0)
(-9.73025e-12 0 0)
(-1.09245e-12 0 0)
(5.51861e-12 0 0)
(3.50176e-12 0 0)
(3.7854e-12 0 0)
(1.05948e-11 0 0)
(1.72666e-11 0 0)
(2.20306e-11 0 0)
(2.05337e-11 0 0)
(2.46639e-11 0 0)
(3.36575e-11 0 0)
(3.54295e-11 0 0)
(3.09783e-11 0 0)
(3.50758e-11 0 0)
(4.60606e-11 0 0)
(4.5388e-11 0 0)
(3.69619e-11 0 0)
(4.02668e-11 0 0)
(3.79228e-11 0 0)
(2.89405e-11 0 0)
(2.03108e-11 0 0)
(2.12861e-11 0 0)
(2.55192e-11 0 0)
(2.62351e-11 0 0)
(2.36866e-11 0 0)
(1.67742e-11 0 0)
(2.00324e-11 0 0)
(1.7882e-11 0 0)
(1.61161e-11 0 0)
(2.469e-11 0 0)
(3.14912e-11 0 0)
(4.09965e-11 0 0)
(3.75845e-11 0 0)
(3.02188e-11 0 0)
(3.29128e-11 0 0)
(3.24703e-11 0 0)
(2.89353e-11 0 0)
(2.29069e-11 0 0)
(1.58201e-11 0 0)
(1.21408e-11 0 0)
(1.65825e-11 0 0)
(2.33373e-11 0 0)
(2.73297e-11 0 0)
(3.20933e-11 0 0)
(3.3771e-11 0 0)
(2.94924e-11 0 0)
(3.37545e-11 0 0)
(3.47015e-11 0 0)
(2.70285e-11 0 0)
(2.3383e-11 0 0)
(2.76173e-11 0 0)
(2.4855e-11 0 0)
(1.91674e-11 0 0)
(1.85682e-11 0 0)
(2.24405e-11 0 0)
(2.57973e-11 0 0)
(2.70474e-11 0 0)
(3.08058e-11 0 0)
(3.70343e-11 0 0)
(3.528e-11 0 0)
(3.51697e-11 0 0)
(3.46457e-11 0 0)
(3.3094e-11 0 0)
(4.4066e-11 0 0)
(4.14403e-11 0 0)
(3.7679e-11 0 0)
(3.60079e-11 0 0)
(3.31613e-11 0 0)
(3.36138e-11 0 0)
(3.23328e-11 0 0)
(3.05746e-11 0 0)
(1.83407e-11 0 0)
(1.56557e-11 0 0)
(1.95713e-11 0 0)
(1.56907e-11 0 0)
(1.91027e-11 0 0)
(2.03314e-11 0 0)
(1.64158e-11 0 0)
(1.80807e-11 0 0)
(1.50458e-11 0 0)
(1.43168e-11 0 0)
(1.61836e-11 0 0)
(8.39147e-12 0 0)
(1.0133e-11 0 0)
(1.83066e-11 0 0)
(1.37968e-11 0 0)
(8.60354e-12 0 0)
(1.41058e-11 0 0)
(1.25124e-11 0 0)
(1.23036e-11 0 0)
(1.76511e-11 0 0)
(1.45842e-11 0 0)
(9.31053e-12 0 0)
(1.70518e-12 0 0)
(3.04051e-12 0 0)
(2.52709e-12 0 0)
(5.17608e-12 0 0)
(8.52929e-12 0 0)
(7.93313e-12 0 0)
(1.29175e-11 0 0)
(1.22073e-11 0 0)
(9.89185e-12 0 0)
(3.08684e-12 0 0)
(5.74789e-12 0 0)
(8.94885e-12 0 0)
(2.84298e-12 0 0)
(3.95309e-12 0 0)
(5.72465e-12 0 0)
(3.05783e-12 0 0)
(3.74223e-12 0 0)
(6.34899e-12 0 0)
(8.74212e-12 0 0)
(4.81476e-12 0 0)
(6.24714e-12 0 0)
(8.16078e-12 0 0)
(3.6142e-12 0 0)
(2.16534e-12 0 0)
(3.48609e-12 0 0)
(4.6098e-12 0 0)
(4.94968e-12 0 0)
(-2.57622e-12 0 0)
(-1.26598e-12 0 0)
(7.41479e-12 0 0)
(7.42361e-12 0 0)
(1.09323e-11 0 0)
(9.62203e-12 0 0)
(5.00614e-12 0 0)
(1.15388e-12 0 0)
(4.86372e-12 0 0)
(7.15626e-12 0 0)
(9.56492e-12 0 0)
(1.68665e-11 0 0)
(1.72937e-11 0 0)
(1.93701e-11 0 0)
(2.04297e-11 0 0)
(2.32345e-11 0 0)
(2.57291e-11 0 0)
(2.45753e-11 0 0)
(2.01709e-11 0 0)
(4.01025e-11 0 0)
(-3.47879e-11 0 0)
(1.09671e-10 0 0)
(-1.13522e-10 0 0)
(1.0923e-10 0 0)
)
;

boundaryField
{
    upDown
    {
        type            empty;
    }
    left
    {
        type            fixedValue;
        value           uniform (0 0 0);
    }
    right
    {
        type            zeroGradient;
    }
    frontAndBack
    {
        type            empty;
    }
}


// ************************************************************************* //
