/*--------------------------------*- C++ -*----------------------------------*\
| =========                 |                                                 |
| \\      /  F ield         | OpenFOAM: The Open Source CFD Toolbox           |
|  \\    /   O peration     | Version:  2112                                  |
|   \\  /    A nd           | Website:  www.openfoam.com                      |
|    \\/     M anipulation  |                                                 |
\*---------------------------------------------------------------------------*/
FoamFile
{
    version     2.0;
    format      ascii;
    arch        "LSB;label=32;scalar=64";
    class       surfaceScalarField;
    location    "0.075";
    object      phi;
}
// * * * * * * * * * * * * * * * * * * * * * * * * * * * * * * * * * * * * * //

dimensions      [0 3 -1 0 0 0 0];

oriented        oriented;

internalField   nonuniform List<scalar> 
511
(
3.71841e-25
1.5706e-25
-4.50311e-25
-2.89675e-25
7.24568e-25
4.6346e-25
1.02091e-25
3.01999e-25
4.81549e-25
7.91293e-25
1.46896e-25
9.42939e-26
-4.46933e-25
-1.05589e-24
-1.70179e-24
-1.76582e-24
-1.9814e-24
-1.32664e-24
-1.79266e-24
-1.03484e-24
-1.9218e-24
-1.42578e-24
-1.63787e-24
-2.11655e-24
-1.9265e-24
-1.60945e-24
-1.45679e-24
-7.38627e-25
-7.19182e-25
9.92435e-27
1.40107e-24
3.90455e-26
-2.05025e-23
5.8231e-23
-4.28018e-23
-5.43495e-23
-9.19809e-23
-1.4992e-22
-1.55351e-22
-9.07222e-23
-1.26712e-22
-1.42491e-22
-1.90664e-22
-2.274e-22
-2.83358e-22
-2.47569e-22
-2.23909e-22
-1.83321e-22
-1.95059e-22
-1.53802e-22
-2.81239e-22
-2.87605e-22
-3.26983e-22
-4.23703e-22
-3.56444e-22
-3.64079e-22
-2.13868e-22
-3.22776e-22
-3.19311e-22
-3.71968e-22
-2.71915e-22
-3.24552e-22
-2.06928e-22
-2.73498e-22
-2.53023e-22
-2.89276e-22
-2.67964e-22
-2.37988e-22
-2.56635e-22
-2.30928e-22
-1.20804e-22
-2.31686e-22
-2.11316e-22
-2.85415e-22
-2.90626e-22
-1.79311e-22
-1.81195e-22
-1.22932e-22
-1.53301e-22
-1.3245e-22
-6.8491e-24
1.39082e-23
8.24338e-23
1.08594e-22
-4.59269e-23
1.0941e-22
5.97721e-23
4.86149e-23
-1.1795e-23
-8.35963e-23
1.98064e-23
-3.29859e-23
-1.35007e-22
-1.79487e-22
-1.46157e-22
-1.1435e-22
-4.16112e-23
-1.28616e-22
-1.80078e-22
-1.79904e-22
-2.65684e-22
-1.87264e-22
-2.60144e-22
-3.04681e-22
-2.94199e-22
-3.19306e-22
-2.87748e-22
-3.3398e-22
-2.22562e-22
-2.43294e-22
-3.26181e-22
-3.0452e-22
-3.10999e-22
-3.21039e-22
-3.69218e-22
-3.35692e-22
-4.43163e-22
-4.78755e-22
-4.46436e-22
-4.18438e-22
-4.82695e-22
-4.41854e-22
-5.29105e-22
-5.80468e-22
-6.50011e-22
-5.63482e-22
-6.67716e-22
-5.56008e-22
-5.48993e-22
-5.9477e-22
-5.25287e-22
-4.86652e-22
-4.37474e-22
-4.40807e-22
-5.18264e-22
-5.69766e-22
-4.63617e-22
-4.53642e-22
-4.30257e-22
-4.88321e-22
-4.40847e-22
-5.16121e-22
-4.50045e-22
-4.60004e-22
-4.24647e-22
-4.44914e-22
-4.73575e-22
-4.48153e-22
-5.16451e-22
-4.25628e-22
-5.53016e-22
-5.18779e-22
-4.38904e-22
-5.03068e-22
-5.57495e-22
-6.30535e-22
-5.9781e-22
-6.17067e-22
-6.35534e-22
-6.40512e-22
-5.49967e-22
-6.13404e-22
-6.25726e-22
-6.97832e-22
-7.74303e-22
-6.89692e-22
-5.90499e-22
-6.52322e-22
-7.2074e-22
-7.35351e-22
-8.62562e-22
-8.6196e-22
-8.45763e-22
-8.83293e-22
-8.65811e-22
-8.60403e-22
-8.01327e-22
-8.30237e-22
-8.15672e-22
-8.49851e-22
-8.82677e-22
-8.73261e-22
-7.46865e-22
-7.62049e-22
-6.8623e-22
-6.08405e-22
-6.35793e-22
-6.24002e-22
-6.57516e-22
-7.27008e-22
-7.04173e-22
-6.93657e-22
-7.42767e-22
-6.40572e-22
-6.96217e-22
-6.99068e-22
-7.16055e-22
-7.35256e-22
-7.55288e-22
-7.79392e-22
-8.07448e-22
-7.46717e-22
-7.43905e-22
-8.8388e-22
-7.34553e-22
-8.25754e-22
-7.93234e-22
-7.85686e-22
-7.28684e-22
-8.30628e-22
-8.34326e-22
-8.8994e-22
-8.60391e-22
-8.15992e-22
-8.11982e-22
-7.49431e-22
-6.78646e-22
-7.36367e-22
-7.01956e-22
-7.02088e-22
-5.86272e-22
-5.76467e-22
-6.50613e-22
-6.21334e-22
-5.94614e-22
-5.68997e-22
-5.19685e-22
-5.16018e-22
-5.09491e-22
-5.6778e-22
-5.07885e-22
-6.04996e-22
-5.57763e-22
-4.56386e-22
-5.67539e-22
-4.67278e-22
-5.05619e-22
-4.87341e-22
-5.45579e-22
-4.99712e-22
-4.94924e-22
-4.86254e-22
-4.69643e-22
-5.72059e-22
-5.81122e-22
-6.3e-22
-6.72616e-22
-6.63114e-22
-7.0392e-22
-6.96814e-22
-6.56524e-22
-6.66811e-22
-6.69244e-22
-6.64887e-22
-7.22376e-22
-8.1852e-22
-7.52383e-22
-7.4396e-22
-6.79627e-22
-7.21483e-22
-6.66392e-22
-6.73057e-22
-6.71739e-22
-7.53786e-22
-6.91239e-22
-6.67846e-22
-5.94894e-22
-6.82728e-22
-8.1817e-22
-7.44769e-22
-6.76875e-22
-6.92513e-22
-6.51604e-22
-7.20243e-22
-6.38978e-22
-6.69637e-22
-7.63761e-22
-7.86457e-22
-6.96588e-22
-6.99207e-22
-6.90465e-22
-5.80116e-22
-6.22117e-22
-5.58869e-22
-6.07237e-22
-6.54127e-22
-6.45585e-22
-6.53611e-22
-5.52786e-22
-7.1457e-22
-7.21197e-22
-5.92569e-22
-7.11934e-22
-7.49462e-22
-7.99962e-22
-8.16013e-22
-8.96732e-22
-6.99676e-22
-8.20945e-22
-7.39555e-22
-7.49678e-22
-7.40188e-22
-7.09794e-22
-7.65189e-22
-7.62083e-22
-6.63794e-22
-6.35625e-22
-5.75386e-22
-5.99712e-22
-5.87852e-22
-6.84759e-22
-7.6958e-22
-5.89795e-22
-6.35163e-22
-6.79093e-22
-6.59606e-22
-5.58711e-22
-5.82282e-22
-4.47822e-22
-4.35936e-22
-3.71476e-22
-3.56891e-22
-3.37978e-22
-2.718e-22
-3.85796e-22
-3.44947e-22
-3.85511e-22
-3.54339e-22
-3.08004e-22
-3.3492e-22
-3.94166e-22
-3.06888e-22
-2.97029e-22
-3.31315e-22
-3.02661e-22
-2.87817e-22
-2.45209e-22
-3.17168e-22
-2.90842e-22
-4.1223e-22
-3.91714e-22
-3.12185e-22
-3.71535e-22
-3.73932e-22
-3.14805e-22
-3.60287e-22
-3.54733e-22
-2.54279e-22
-2.81636e-22
-2.66168e-22
-3.16003e-22
-4.11389e-22
-4.43098e-22
-3.68882e-22
-3.91187e-22
-3.9139e-22
-4.76183e-22
-4.30815e-22
-3.43412e-22
-3.35065e-22
-4.09212e-22
-4.53865e-22
-4.67531e-22
-5.32377e-22
-6.38965e-22
-5.5583e-22
-6.31913e-22
-5.96057e-22
-5.6182e-22
-6.12078e-22
-5.81005e-22
-5.89596e-22
-6.04425e-22
-7.36545e-22
-7.57702e-22
-7.79125e-22
-7.9484e-22
-7.97096e-22
-9.79438e-22
-8.47577e-22
-7.71285e-22
-6.3844e-22
-8.38707e-22
-7.12549e-22
-7.09502e-22
-6.68986e-22
-6.85746e-22
-7.30566e-22
-7.84396e-22
-8.45723e-22
-8.64468e-22
-9.01865e-22
-9.94276e-22
-1.05236e-21
-8.78117e-22
-8.27836e-22
-7.64217e-22
-7.11719e-22
-7.30484e-22
-6.95616e-22
-6.37336e-22
-6.23846e-22
-5.89345e-22
-5.57222e-22
-6.46507e-22
-5.01545e-22
-4.79006e-22
-4.44316e-22
-4.65716e-22
-5.65722e-22
-6.0266e-22
-5.47444e-22
-6.52466e-22
-5.5708e-22
-6.32251e-22
-5.76658e-22
-6.13708e-22
-5.30429e-22
-5.51003e-22
-4.86246e-22
-4.58169e-22
-5.35636e-22
-6.0155e-22
-5.04864e-22
-4.76254e-22
-4.39641e-22
-4.60787e-22
-4.22119e-22
-3.72223e-22
-2.85518e-22
-2.69417e-22
-2.29444e-22
-3.9995e-22
-4.51559e-22
-5.22446e-22
-5.00957e-22
-4.7513e-22
-4.45209e-22
-4.4378e-22
-3.7113e-22
-3.74267e-22
-3.65556e-22
-5.24405e-22
-6.19637e-22
-4.90243e-22
-4.5552e-22
-5.24913e-22
-5.31503e-22
-4.57377e-22
-3.6287e-22
-3.68106e-22
-2.39136e-22
-1.95725e-22
-1.98553e-22
-1.90864e-22
-1.57871e-22
-8.05036e-23
4.56515e-23
3.80219e-23
1.35505e-22
1.68738e-22
1.9905e-22
2.47489e-22
2.31237e-22
3.08841e-22
3.27985e-22
3.93469e-22
4.55615e-22
5.1541e-22
5.0771e-22
4.6126e-22
4.8219e-22
6.43245e-22
6.06567e-22
6.03311e-22
5.20973e-22
6.1512e-22
5.94441e-22
5.15778e-22
6.00955e-22
6.12659e-22
7.45073e-22
8.05212e-22
7.59635e-22
6.50461e-22
7.97202e-22
8.03409e-22
6.61204e-22
7.79947e-22
7.79533e-22
7.56112e-22
7.13613e-22
7.31046e-22
6.94467e-22
7.4066e-22
6.35272e-22
7.46975e-22
7.30805e-22
7.82762e-22
8.03685e-22
6.73778e-22
8.23484e-22
8.00773e-22
8.2668e-22
8.30306e-22
7.63776e-22
7.19338e-22
6.49552e-22
6.24897e-22
5.45909e-22
7.92221e-22
)
;

boundaryField
{
    upDown
    {
        type            empty;
        value           nonuniform List<scalar> 0();
    }
    left
    {
        type            calculated;
        value           uniform -1.04694e-31;
    }
    right
    {
        type            calculated;
        value           uniform 1.06001e-21;
    }
    frontAndBack
    {
        type            empty;
        value           nonuniform List<scalar> 0();
    }
}


// ************************************************************************* //
