/*--------------------------------*- C++ -*----------------------------------*\
| =========                 |                                                 |
| \\      /  F ield         | OpenFOAM: The Open Source CFD Toolbox           |
|  \\    /   O peration     | Version:  2112                                  |
|   \\  /    A nd           | Website:  www.openfoam.com                      |
|    \\/     M anipulation  |                                                 |
\*---------------------------------------------------------------------------*/
FoamFile
{
    version     2.0;
    format      ascii;
    arch        "LSB;label=32;scalar=64";
    class       volVectorField;
    location    "0.075";
    object      U;
}
// * * * * * * * * * * * * * * * * * * * * * * * * * * * * * * * * * * * * * //

dimensions      [0 1 -1 0 0 0 0];

internalField   nonuniform List<vector> 
512
(
(-8.61672e-13 0 0)
(1.39929e-13 0 0)
(-1.679e-13 0 0)
(3.47137e-14 0 0)
(1.82657e-13 0 0)
(-3.59775e-14 0 0)
(4.35979e-14 0 0)
(1.93072e-14 0 0)
(3.99957e-14 0 0)
(7.75486e-14 0 0)
(3.93368e-14 0 0)
(1.01805e-14 0 0)
(-1.20153e-14 0 0)
(-7.67837e-14 0 0)
(-1.32663e-13 0 0)
(-1.6748e-13 0 0)
(-2.06395e-13 0 0)
(-1.0596e-13 0 0)
(-1.79474e-13 0 0)
(-2.44565e-13 0 0)
(9.31389e-13 0 0)
(-5.84099e-12 0 0)
(1.26095e-11 0 0)
(-5.69436e-12 0 0)
(-3.19905e-11 0 0)
(3.50361e-10 0 0)
(-1.58868e-09 0 0)
(2.87659e-09 0 0)
(-1.74658e-09 0 0)
(-1.48817e-09 0 0)
(3.94007e-09 0 0)
(-6.11117e-09 0 0)
(1.50599e-08 0 0)
(-4.05423e-08 0 0)
(5.36212e-08 0 0)
(-3.20321e-08 0 0)
(9.42118e-09 0 0)
(-1.76518e-09 0 0)
(-7.6833e-11 0 0)
(2.09025e-10 0 0)
(-1.3432e-10 0 0)
(1.92909e-11 0 0)
(-2.34328e-11 0 0)
(-2.02218e-11 0 0)
(-2.52541e-11 0 0)
(-2.59792e-11 0 0)
(-2.37521e-11 0 0)
(-2.08122e-11 0 0)
(-1.86432e-11 0 0)
(-1.77235e-11 0 0)
(-2.098e-11 0 0)
(-3.0043e-11 0 0)
(-3.00539e-11 0 0)
(-3.79896e-11 0 0)
(-3.88083e-11 0 0)
(-3.51294e-11 0 0)
(-2.96764e-11 0 0)
(-2.66191e-11 0 0)
(-3.24266e-11 0 0)
(-3.41558e-11 0 0)
(-3.21463e-11 0 0)
(-3.03261e-11 0 0)
(-2.64258e-11 0 0)
(-2.30451e-11 0 0)
(-2.63626e-11 0 0)
(-2.68849e-11 0 0)
(-2.83272e-11 0 0)
(-2.54853e-11 0 0)
(-2.4391e-11 0 0)
(-2.45839e-11 0 0)
(-1.61594e-11 0 0)
(-1.8516e-11 0 0)
(-2.27468e-11 0 0)
(-2.46641e-11 0 0)
(-2.97719e-11 0 0)
(-2.31366e-11 0 0)
(-1.7869e-11 0 0)
(-1.57965e-11 0 0)
(-1.41528e-11 0 0)
(-1.38647e-11 0 0)
(-7.40026e-12 0 0)
(8.76643e-13 0 0)
(4.48285e-12 0 0)
(9.3549e-12 0 0)
(4.49426e-12 0 0)
(2.28548e-12 0 0)
(8.92312e-12 0 0)
(5.68644e-12 0 0)
(1.60511e-12 0 0)
(-4.11034e-12 0 0)
(-2.16972e-12 0 0)
(-1.5148e-12 0 0)
(-8.09754e-12 0 0)
(-1.59621e-11 0 0)
(-1.75102e-11 0 0)
(-1.16457e-11 0 0)
(-8.57722e-12 0 0)
(-7.75507e-12 0 0)
(-1.51057e-11 0 0)
(-1.85578e-11 0 0)
(-2.26419e-11 0 0)
(-2.2629e-11 0 0)
(-2.26898e-11 0 0)
(-2.94142e-11 0 0)
(-2.88749e-11 0 0)
(-3.23191e-11 0 0)
(-2.9188e-11 0 0)
(-3.0858e-11 0 0)
(-2.80743e-11 0 0)
(-2.15794e-11 0 0)
(-2.9879e-11 0 0)
(-3.00672e-11 0 0)
(-3.07553e-11 0 0)
(-3.15218e-11 0 0)
(-3.51072e-11 0 0)
(-3.63883e-11 0 0)
(-3.84716e-11 0 0)
(-4.76585e-11 0 0)
(-4.55187e-11 0 0)
(-4.3626e-11 0 0)
(-4.53537e-11 0 0)
(-4.57407e-11 0 0)
(-4.81459e-11 0 0)
(-5.48797e-11 0 0)
(-6.12851e-11 0 0)
(-6.09309e-11 0 0)
(-6.22028e-11 0 0)
(-6.08238e-11 0 0)
(-5.56007e-11 0 0)
(-5.68448e-11 0 0)
(-5.66708e-11 0 0)
(-5.11067e-11 0 0)
(-4.6366e-11 0 0)
(-4.37068e-11 0 0)
(-4.70974e-11 0 0)
(-5.39837e-11 0 0)
(-5.19533e-11 0 0)
(-4.60641e-11 0 0)
(-4.47435e-11 0 0)
(-4.65286e-11 0 0)
(-4.57664e-11 0 0)
(-4.76949e-11 0 0)
(-4.76616e-11 0 0)
(-4.49922e-11 0 0)
(-4.42171e-11 0 0)
(-4.35768e-11 0 0)
(-4.5333e-11 0 0)
(-4.65887e-11 0 0)
(-4.85616e-11 0 0)
(-4.66394e-11 0 0)
(-4.91492e-11 0 0)
(-5.35069e-11 0 0)
(-4.75308e-11 0 0)
(-4.82662e-11 0 0)
(-5.24206e-11 0 0)
(-5.87834e-11 0 0)
(-6.21699e-11 0 0)
(-6.01184e-11 0 0)
(-6.33702e-11 0 0)
(-6.35903e-11 0 0)
(-5.9212e-11 0 0)
(-5.87266e-11 0 0)
(-6.14557e-11 0 0)
(-6.61166e-11 0 0)
(-7.35925e-11 0 0)
(-7.32597e-11 0 0)
(-6.47461e-11 0 0)
(-6.12965e-11 0 0)
(-6.91639e-11 0 0)
(-7.22679e-11 0 0)
(-8.00902e-11 0 0)
(-8.72807e-11 0 0)
(-8.49629e-11 0 0)
(-8.69891e-11 0 0)
(-8.70897e-11 0 0)
(-8.57815e-11 0 0)
(-8.3872e-11 0 0)
(-8.14634e-11 0 0)
(-8.20877e-11 0 0)
(-8.36977e-11 0 0)
(-8.64151e-11 0 0)
(-8.74019e-11 0 0)
(-8.18812e-11 0 0)
(-7.54288e-11 0 0)
(-7.17663e-11 0 0)
(-6.54004e-11 0 0)
(-6.16497e-11 0 0)
(-6.26405e-11 0 0)
(-6.48878e-11 0 0)
(-6.93337e-11 0 0)
(-7.09205e-11 0 0)
(-6.98368e-11 0 0)
(-7.14723e-11 0 0)
(-6.91343e-11 0 0)
(-6.70694e-11 0 0)
(-6.9456e-11 0 0)
(-7.03514e-11 0 0)
(-7.28698e-11 0 0)
(-7.41733e-11 0 0)
(-7.6815e-11 0 0)
(-7.90593e-11 0 0)
(-7.71425e-11 0 0)
(-7.48459e-11 0 0)
(-8.18781e-11 0 0)
(-8.15874e-11 0 0)
(-7.87024e-11 0 0)
(-8.10122e-11 0 0)
(-7.76303e-11 0 0)
(-7.69374e-11 0 0)
(-7.68074e-11 0 0)
(-8.39572e-11 0 0)
(-8.56283e-11 0 0)
(-8.69925e-11 0 0)
(-8.50815e-11 0 0)
(-8.06156e-11 0 0)
(-7.92884e-11 0 0)
(-7.0669e-11 0 0)
(-7.01285e-11 0 0)
(-7.19995e-11 0 0)
(-7.10345e-11 0 0)
(-6.4024e-11 0 0)
(-5.85228e-11 0 0)
(-6.21417e-11 0 0)
(-6.28294e-11 0 0)
(-6.14375e-11 0 0)
(-5.72636e-11 0 0)
(-5.39642e-11 0 0)
(-5.26195e-11 0 0)
(-5.0509e-11 0 0)
(-5.42579e-11 0 0)
(-5.40064e-11 0 0)
(-5.53648e-11 0 0)
(-5.77646e-11 0 0)
(-5.10678e-11 0 0)
(-5.0722e-11 0 0)
(-5.22018e-11 0 0)
(-4.93354e-11 0 0)
(-4.92226e-11 0 0)
(-5.0669e-11 0 0)
(-5.30815e-11 0 0)
(-4.97217e-11 0 0)
(-4.92651e-11 0 0)
(-4.81382e-11 0 0)
(-5.08565e-11 0 0)
(-5.8121e-11 0 0)
(-6.09681e-11 0 0)
(-6.49568e-11 0 0)
(-6.67018e-11 0 0)
(-6.90764e-11 0 0)
(-6.87026e-11 0 0)
(-6.81496e-11 0 0)
(-6.57371e-11 0 0)
(-6.76209e-11 0 0)
(-6.63011e-11 0 0)
(-6.925e-11 0 0)
(-7.78762e-11 0 0)
(-7.79542e-11 0 0)
(-7.52465e-11 0 0)
(-7.07519e-11 0 0)
(-7.04676e-11 0 0)
(-6.85331e-11 0 0)
(-6.75385e-11 0 0)
(-6.69285e-11 0 0)
(-7.01354e-11 0 0)
(-7.26096e-11 0 0)
(-6.8212e-11 0 0)
(-6.28586e-11 0 0)
(-6.40613e-11 0 0)
(-7.52777e-11 0 0)
(-7.75529e-11 0 0)
(-7.14681e-11 0 0)
(-6.91256e-11 0 0)
(-6.68095e-11 0 0)
(-6.85873e-11 0 0)
(-6.78091e-11 0 0)
(-6.49897e-11 0 0)
(-7.19488e-11 0 0)
(-7.78633e-11 0 0)
(-7.42788e-11 0 0)
(-7.02634e-11 0 0)
(-6.95783e-11 0 0)
(-6.32898e-11 0 0)
(-6.06033e-11 0 0)
(-5.86013e-11 0 0)
(-5.83932e-11 0 0)
(-6.31273e-11 0 0)
(-6.49026e-11 0 0)
(-6.4363e-11 0 0)
(-6.09921e-11 0 0)
(-6.29403e-11 0 0)
(-7.18923e-11 0 0)
(-6.69025e-11 0 0)
(-6.49193e-11 0 0)
(-7.23954e-11 0 0)
(-7.73545e-11 0 0)
(-8.00601e-11 0 0)
(-8.57894e-11 0 0)
(-8.0322e-11 0 0)
(-7.53468e-11 0 0)
(-7.84047e-11 0 0)
(-7.47268e-11 0 0)
(-7.52051e-11 0 0)
(-7.28346e-11 0 0)
(-7.42715e-11 0 0)
(-7.61927e-11 0 0)
(-7.08587e-11 0 0)
(-6.47649e-11 0 0)
(-5.97112e-11 0 0)
(-5.78704e-11 0 0)
(-5.94251e-11 0 0)
(-6.34373e-11 0 0)
(-7.35146e-11 0 0)
(-6.72397e-11 0 0)
(-6.12401e-11 0 0)
(-6.5933e-11 0 0)
(-6.72365e-11 0 0)
(-6.20399e-11 0 0)
(-5.76434e-11 0 0)
(-5.07238e-11 0 0)
(-4.41343e-11 0 0)
(-4.06298e-11 0 0)
(-3.60886e-11 0 0)
(-3.54382e-11 0 0)
(-2.95145e-11 0 0)
(-3.26381e-11 0 0)
(-3.66493e-11 0 0)
(-3.75566e-11 0 0)
(-3.69779e-11 0 0)
(-3.38919e-11 0 0)
(-3.04984e-11 0 0)
(-3.61968e-11 0 0)
(-3.49151e-11 0 0)
(-2.90323e-11 0 0)
(-3.30225e-11 0 0)
(-3.05955e-11 0 0)
(-2.99368e-11 0 0)
(-2.75492e-11 0 0)
(-2.70084e-11 0 0)
(-3.09828e-11 0 0)
(-3.51997e-11 0 0)
(-3.93076e-11 0 0)
(-3.61665e-11 0 0)
(-3.43599e-11 0 0)
(-3.72963e-11 0 0)
(-3.48471e-11 0 0)
(-3.34809e-11 0 0)
(-3.58525e-11 0 0)
(-2.98083e-11 0 0)
(-2.63373e-11 0 0)
(-2.72677e-11 0 0)
(-2.87653e-11 0 0)
(-3.69279e-11 0 0)
(-4.28515e-11 0 0)
(-4.0405e-11 0 0)
(-3.86613e-11 0 0)
(-3.95047e-11 0 0)
(-4.41406e-11 0 0)
(-4.57307e-11 0 0)
(-3.79278e-11 0 0)
(-3.3257e-11 0 0)
(-3.64762e-11 0 0)
(-4.25707e-11 0 0)
(-4.58504e-11 0 0)
(-5.03049e-11 0 0)
(-5.85959e-11 0 0)
(-6.13314e-11 0 0)
(-6.04163e-11 0 0)
(-6.09694e-11 0 0)
(-5.80244e-11 0 0)
(-5.69111e-11 0 0)
(-6.00641e-11 0 0)
(-5.90075e-11 0 0)
(-5.89809e-11 0 0)
(-6.71309e-11 0 0)
(-7.47315e-11 0 0)
(-7.69554e-11 0 0)
(-7.87212e-11 0 0)
(-8.032e-11 0 0)
(-8.96892e-11 0 0)
(-9.03858e-11 0 0)
(-8.14897e-11 0 0)
(-7.01897e-11 0 0)
(-7.3598e-11 0 0)
(-7.81191e-11 0 0)
(-6.98292e-11 0 0)
(-6.92775e-11 0 0)
(-6.73174e-11 0 0)
(-6.97544e-11 0 0)
(-7.62165e-11 0 0)
(-8.08092e-11 0 0)
(-8.55401e-11 0 0)
(-9.01488e-11 0 0)
(-9.55872e-11 0 0)
(-1.03272e-10 0 0)
(-9.65379e-11 0 0)
(-8.43063e-11 0 0)
(-7.8685e-11 0 0)
(-7.4012e-11 0 0)
(-7.12737e-11 0 0)
(-7.19525e-11 0 0)
(-6.71686e-11 0 0)
(-6.31735e-11 0 0)
(-6.13657e-11 0 0)
(-5.66599e-11 0 0)
(-6.00012e-11 0 0)
(-5.5988e-11 0 0)
(-4.97675e-11 0 0)
(-4.61051e-11 0 0)
(-4.54032e-11 0 0)
(-5.28915e-11 0 0)
(-5.76059e-11 0 0)
(-5.74087e-11 0 0)
(-6.03912e-11 0 0)
(-5.95142e-11 0 0)
(-5.96922e-11 0 0)
(-6.1468e-11 0 0)
(-5.91597e-11 0 0)
(-5.83552e-11 0 0)
(-5.29494e-11 0 0)
(-5.18838e-11 0 0)
(-4.80938e-11 0 0)
(-4.89763e-11 0 0)
(-5.80062e-11 0 0)
(-5.44342e-11 0 0)
(-4.89678e-11 0 0)
(-4.63542e-11 0 0)
(-4.42963e-11 0 0)
(-4.52163e-11 0 0)
(-3.92033e-11 0 0)
(-3.26695e-11 0 0)
(-2.7006e-11 0 0)
(-2.4155e-11 0 0)
(-3.23237e-11 0 0)
(-4.26613e-11 0 0)
(-4.75102e-11 0 0)
(-5.15366e-11 0 0)
(-4.88745e-11 0 0)
(-4.60071e-11 0 0)
(-4.56063e-11 0 0)
(-4.05738e-11 0 0)
(-3.62992e-11 0 0)
(-3.60557e-11 0 0)
(-4.47748e-11 0 0)
(-5.76098e-11 0 0)
(-5.57277e-11 0 0)
(-4.74702e-11 0 0)
(-4.88485e-11 0 0)
(-5.36417e-11 0 0)
(-5.0012e-11 0 0)
(-4.14554e-11 0 0)
(-3.64186e-11 0 0)
(-2.92637e-11 0 0)
(-2.12775e-11 0 0)
(-2.03721e-11 0 0)
(-1.94096e-11 0 0)
(-1.85415e-11 0 0)
(-1.32523e-11 0 0)
(-2.80822e-13 0 0)
(4.19242e-12 0 0)
(8.71008e-12 0 0)
(1.58171e-11 0 0)
(1.79999e-11 0 0)
(2.15922e-11 0 0)
(2.533e-11 0 0)
(2.62846e-11 0 0)
(3.26189e-11 0 0)
(3.59204e-11 0 0)
(4.24826e-11 0 0)
(4.8858e-11 0 0)
(5.13574e-11 0 0)
(4.76798e-11 0 0)
(4.74431e-11 0 0)
(5.65715e-11 0 0)
(6.16342e-11 0 0)
(6.23992e-11 0 0)
(5.5321e-11 0 0)
(5.71095e-11 0 0)
(6.047e-11 0 0)
(5.58463e-11 0 0)
(5.53949e-11 0 0)
(5.91358e-11 0 0)
(6.89138e-11 0 0)
(7.75231e-11 0 0)
(7.82272e-11 0 0)
(7.1051e-11 0 0)
(7.19809e-11 0 0)
(7.98155e-11 0 0)
(7.2779e-11 0 0)
(7.27699e-11 0 0)
(7.79296e-11 0 0)
(7.80461e-11 0 0)
(7.31803e-11 0 0)
(7.21873e-11 0 0)
(7.12303e-11 0 0)
(7.04525e-11 0 0)
(6.96653e-11 0 0)
(6.80502e-11 0 0)
(7.59796e-11 0 0)
(7.28995e-11 0 0)
(8.36569e-11 0 0)
(7.18554e-11 0 0)
(2.43423e-11 0 0)
(3.6388e-10 0 0)
(-6.83069e-10 0 0)
(1.07715e-09 0 0)
(-1.18533e-10 0 0)
(-1.57841e-08 0 0)
(7.4436e-08 0 0)
(-1.7981e-07 0 0)
(2.73342e-07 0 0)
(-3.11107e-07 0 0)
(1.6022e-07 0 0)
)
;

boundaryField
{
    upDown
    {
        type            empty;
    }
    left
    {
        type            fixedValue;
        value           uniform (0 0 0);
    }
    right
    {
        type            zeroGradient;
    }
    frontAndBack
    {
        type            empty;
    }
}


// ************************************************************************* //
