/*--------------------------------*- C++ -*----------------------------------*\
| =========                 |                                                 |
| \\      /  F ield         | OpenFOAM: The Open Source CFD Toolbox           |
|  \\    /   O peration     | Version:  2112                                  |
|   \\  /    A nd           | Website:  www.openfoam.com                      |
|    \\/     M anipulation  |                                                 |
\*---------------------------------------------------------------------------*/
FoamFile
{
    version     2.0;
    format      ascii;
    arch        "LSB;label=32;scalar=64";
    class       surfaceScalarField;
    location    "0.05";
    object      phi;
}
// * * * * * * * * * * * * * * * * * * * * * * * * * * * * * * * * * * * * * //

dimensions      [0 3 -1 0 0 0 0];

oriented        oriented;

internalField   nonuniform List<scalar> 
511
(
2.2882e-25
-1.11938e-25
8.49647e-25
-2.3322e-26
1.3047e-24
1.30944e-24
1.4499e-24
1.68438e-24
9.69608e-25
1.20892e-24
1.66155e-24
1.40444e-24
1.37976e-24
1.2309e-24
9.85119e-25
9.92148e-25
9.56105e-25
1.04304e-24
1.74678e-24
2.40608e-24
2.60772e-24
2.51691e-24
2.97207e-24
2.35866e-24
2.20891e-24
1.79722e-24
-3.44936e-24
-4.59228e-23
-4.24499e-23
-1.00331e-22
-2.16871e-23
6.6436e-23
3.04965e-23
8.95935e-23
1.43415e-22
1.70882e-22
2.43525e-22
1.71684e-22
6.37262e-23
1.0976e-22
9.86704e-23
1.45787e-22
9.23146e-23
1.53842e-22
1.70775e-22
1.62424e-22
1.69539e-22
7.81226e-23
6.67262e-23
1.65883e-22
7.37237e-23
-1.62562e-23
1.59295e-23
-1.66582e-23
-2.04638e-23
1.15713e-22
1.19215e-23
5.14645e-23
9.54798e-23
8.99818e-23
1.16548e-22
7.96397e-23
5.14238e-23
1.62436e-22
1.80843e-22
1.95165e-22
3.48133e-22
2.64332e-22
3.29028e-22
3.99325e-22
3.72673e-22
3.05028e-22
3.52378e-22
4.29892e-22
4.10463e-22
4.85937e-22
4.54465e-22
4.25785e-22
3.80766e-22
3.86652e-22
3.28155e-22
4.25244e-22
3.67514e-22
4.27754e-22
3.82454e-22
4.29363e-22
3.57377e-22
3.69959e-22
4.41484e-22
3.04889e-22
3.31737e-22
4.23083e-22
4.09933e-22
3.88902e-22
3.79127e-22
3.6468e-22
2.76869e-22
3.00291e-22
3.80785e-22
3.12171e-22
2.76529e-22
2.503e-22
2.92108e-22
3.24436e-22
3.48166e-22
3.60414e-22
4.07662e-22
4.50169e-22
3.96429e-22
3.38835e-22
3.83536e-22
2.70894e-22
2.07976e-22
1.56143e-22
1.64478e-22
1.11863e-22
1.67777e-22
2.14298e-22
1.04684e-22
1.18296e-22
2.28819e-22
2.33924e-22
1.90786e-22
2.59874e-22
2.41125e-22
3.20024e-22
3.32281e-22
3.50893e-22
3.95833e-22
3.42596e-22
3.95726e-22
2.82064e-22
3.39953e-22
3.80116e-22
4.21065e-22
4.15771e-22
3.7704e-22
4.0589e-22
3.89218e-22
4.29027e-22
3.52057e-22
4.27039e-22
3.33824e-22
3.09629e-22
3.00347e-22
1.73725e-22
1.04703e-22
2.02645e-22
1.55841e-22
1.34395e-22
2.54762e-22
2.41175e-22
2.79604e-22
2.11047e-22
1.88117e-22
1.77846e-22
1.08929e-22
1.38271e-22
6.43362e-23
-1.58466e-23
5.77531e-24
-3.06094e-23
-5.81732e-23
4.94542e-23
-6.65604e-23
-1.18294e-22
-2.66515e-22
-3.77949e-22
-2.06761e-22
-2.56302e-22
-3.00629e-22
-2.40731e-22
-1.81167e-22
-3.2195e-22
-3.11826e-22
-1.97794e-22
-1.40383e-22
-2.01407e-22
-1.65666e-22
-2.71216e-22
-1.87743e-22
-2.17443e-22
-2.95862e-22
-2.29594e-22
-2.25764e-22
-2.05806e-22
-1.27089e-22
-6.24868e-23
-7.28678e-23
-1.00468e-22
-9.55894e-23
-1.30657e-22
-1.35937e-22
-1.8233e-22
-1.12935e-22
-5.98114e-23
-1.78771e-22
-1.93181e-22
-1.59648e-22
-1.5471e-22
-7.60416e-23
-1.45927e-22
-1.20288e-22
-8.4695e-23
-1.08618e-22
-3.62165e-23
-1.8028e-22
-6.7886e-23
-5.11053e-23
-1.45058e-22
-1.34015e-22
-1.31609e-22
-1.33812e-22
-1.27525e-22
-1.67425e-22
-5.15031e-23
-2.43537e-22
-2.22348e-22
-2.03124e-22
-1.9323e-22
-1.64554e-22
-2.06239e-22
-3.07945e-22
-2.5402e-22
-2.49484e-22
-2.92861e-22
-2.7679e-22
-3.41235e-22
-3.54029e-22
-3.41642e-22
-2.61044e-22
-2.38677e-22
-1.45826e-22
-1.50742e-22
-1.78396e-22
-1.2134e-22
-2.37257e-22
-2.57921e-22
-2.93029e-22
-3.11873e-22
-3.30661e-22
-3.83505e-22
-2.97701e-22
-2.67393e-22
-3.13028e-22
-3.21007e-22
-3.83613e-22
-3.80976e-22
-4.6935e-22
-3.82319e-22
-3.45093e-22
-3.76933e-22
-4.71986e-22
-4.621e-22
-5.66912e-22
-5.57561e-22
-5.86126e-22
-5.67464e-22
-5.42852e-22
-5.05081e-22
-4.65873e-22
-4.71899e-22
-4.25557e-22
-3.45382e-22
-2.75157e-22
-2.45015e-22
-2.84497e-22
-2.22383e-22
-2.60881e-22
-2.55806e-22
-1.92513e-22
-1.82002e-22
-1.94183e-22
-2.1347e-22
-2.17658e-22
-2.07663e-22
-1.9165e-22
-1.73814e-22
-1.84215e-22
-2.09953e-22
-2.32159e-22
-1.55278e-22
-1.83957e-22
-3.16421e-22
-3.50265e-22
-3.83405e-22
-3.45159e-22
-3.43324e-22
-3.82497e-22
-3.13366e-22
-3.52e-22
-3.83512e-22
-4.7555e-22
-2.93206e-22
-3.31728e-22
-4.37879e-22
-3.98592e-22
-3.18467e-22
-2.90112e-22
-2.97396e-22
-2.49802e-22
-2.0721e-22
-2.27613e-22
-2.89644e-22
-2.94151e-22
-2.75211e-22
-1.91151e-22
-3.03971e-22
-1.52627e-22
-2.4172e-22
-2.32253e-22
-2.98292e-22
-2.05971e-22
-2.42206e-22
-1.80477e-22
-1.63362e-22
-2.25675e-22
-1.79274e-22
-1.31194e-22
-4.17288e-23
-7.05869e-23
-6.02095e-23
6.92977e-23
-3.76506e-24
7.98689e-23
2.81216e-23
1.00735e-23
-5.44604e-23
-6.33491e-23
-9.50412e-23
-6.04797e-23
5.50422e-23
-8.84806e-23
-8.02825e-24
-6.38366e-23
4.87226e-23
3.37528e-24
9.97705e-23
6.2817e-23
1.56626e-23
9.98359e-23
2.64319e-23
6.26601e-23
1.65608e-22
1.76283e-22
1.80621e-22
1.28894e-22
6.84389e-23
-4.69454e-23
9.23935e-24
-1.32274e-23
-1.07466e-24
1.13161e-23
-6.80554e-23
1.06608e-23
4.65414e-23
4.82938e-23
-6.01823e-24
3.51709e-23
5.55891e-23
8.18601e-24
9.78952e-23
1.69188e-23
3.91058e-23
1.94693e-23
8.2796e-23
1.02416e-22
1.86973e-22
8.64778e-23
1.68449e-22
8.50342e-23
1.01863e-22
1.37795e-22
8.0072e-23
4.30525e-23
7.86446e-24
-9.30498e-23
-1.42673e-22
-1.3608e-22
-7.73335e-23
-1.49564e-23
-4.84976e-23
-1.44589e-22
-2.08766e-22
-2.31917e-22
-2.69715e-22
-2.50345e-22
-1.58371e-22
-2.72746e-22
-3.39766e-22
-2.73511e-22
-3.65295e-22
-3.39055e-22
-3.92271e-22
-3.47162e-22
-4.00245e-22
-4.45989e-22
-4.69306e-22
-5.33715e-22
-4.81701e-22
-5.43066e-22
-4.78852e-22
-5.68857e-22
-5.609e-22
-6.38692e-22
-7.16773e-22
-7.08079e-22
-6.93189e-22
-7.51915e-22
-7.23821e-22
-7.60812e-22
-8.5655e-22
-7.85394e-22
-6.92898e-22
-7.26816e-22
-7.04907e-22
-6.02813e-22
-6.84481e-22
-6.56614e-22
-6.34605e-22
-6.332e-22
-6.21258e-22
-6.18418e-22
-6.49827e-22
-5.76031e-22
-4.396e-22
-3.9488e-22
-4.69756e-22
-5.20302e-22
-4.41953e-22
-5.17267e-22
-4.26193e-22
-4.81953e-22
-4.14253e-22
-5.13839e-22
-5.13307e-22
-4.9628e-22
-6.04205e-22
-6.42085e-22
-5.50518e-22
-5.7613e-22
-5.33419e-22
-6.61342e-22
-6.17922e-22
-6.13759e-22
-6.0996e-22
-5.97472e-22
-5.42158e-22
-5.94964e-22
-5.47739e-22
-5.6108e-22
-5.65401e-22
-5.6489e-22
-7.16578e-22
-6.61969e-22
-6.69288e-22
-4.65134e-22
-4.54088e-22
-3.31201e-22
-4.03834e-22
-3.62535e-22
-4.03239e-22
-3.85784e-22
-5.36887e-22
-5.32744e-22
-3.84813e-22
-3.62133e-22
-3.94624e-22
-3.77019e-22
-4.12954e-22
-4.73175e-22
-4.05015e-22
-3.11906e-22
-4.17727e-22
-3.44143e-22
-4.47059e-22
-3.78207e-22
-4.48098e-22
-3.99746e-22
-3.41015e-22
-3.89869e-22
-2.88392e-22
-3.88426e-22
-3.26346e-22
-3.85636e-22
-3.30484e-22
-4.29482e-22
-4.13639e-22
-3.901e-22
-3.74057e-22
-3.57159e-22
-3.87581e-22
-3.58783e-22
-2.63273e-22
-1.13446e-22
-2.30718e-22
-2.14663e-22
-2.14826e-22
-2.84475e-22
-3.15794e-22
-3.91233e-22
-4.19089e-22
-4.84453e-22
-3.64837e-22
-3.58325e-22
-2.29779e-22
-1.38697e-22
-2.49685e-22
-2.45201e-22
-2.59304e-22
-3.97011e-22
)
;

boundaryField
{
    upDown
    {
        type            empty;
        value           nonuniform List<scalar> 0();
    }
    left
    {
        type            calculated;
        value           uniform -1.04694e-31;
    }
    right
    {
        type            calculated;
        value           uniform 5.19716e-23;
    }
    frontAndBack
    {
        type            empty;
        value           nonuniform List<scalar> 0();
    }
}


// ************************************************************************* //
