/*--------------------------------*- C++ -*----------------------------------*\
| =========                 |                                                 |
| \\      /  F ield         | OpenFOAM: The Open Source CFD Toolbox           |
|  \\    /   O peration     | Version:  2112                                  |
|   \\  /    A nd           | Website:  www.openfoam.com                      |
|    \\/     M anipulation  |                                                 |
\*---------------------------------------------------------------------------*/
FoamFile
{
    version     2.0;
    format      ascii;
    arch        "LSB;label=32;scalar=64";
    class       volVectorField;
    location    "0.05";
    object      U;
}
// * * * * * * * * * * * * * * * * * * * * * * * * * * * * * * * * * * * * * //

dimensions      [0 1 -1 0 0 0 0];

internalField   nonuniform List<vector> 
512
(
(2.25815e-14 0 0)
(3.35311e-15 0 0)
(3.58753e-14 0 0)
(3.24211e-14 0 0)
(6.51194e-14 0 0)
(1.33798e-13 0 0)
(1.48769e-13 0 0)
(1.62494e-13 0 0)
(1.32435e-13 0 0)
(1.02241e-13 0 0)
(1.40099e-13 0 0)
(1.52617e-13 0 0)
(1.46059e-13 0 0)
(1.31035e-13 0 0)
(1.15113e-13 0 0)
(1.02652e-13 0 0)
(3.19743e-14 0 0)
(2.45462e-13 0 0)
(-3.68694e-14 0 0)
(1.73546e-13 0 0)
(3.77204e-12 0 0)
(-1.49012e-11 0 0)
(3.34013e-11 0 0)
(-4.85558e-11 0 0)
(4.35653e-11 0 0)
(-1.40664e-11 0 0)
(-6.81582e-11 0 0)
(3.21419e-09 0 0)
(-6.73505e-09 0 0)
(6.43908e-09 0 0)
(-4.44829e-09 0 0)
(2.014e-09 0 0)
(-4.65414e-10 0 0)
(8.65025e-12 0 0)
(3.39885e-11 0 0)
(-2.88008e-12 0 0)
(2.91092e-11 0 0)
(1.96792e-11 0 0)
(1.18561e-11 0 0)
(8.97654e-12 0 0)
(1.02613e-11 0 0)
(1.20426e-11 0 0)
(1.19654e-11 0 0)
(1.15757e-11 0 0)
(1.66903e-11 0 0)
(1.73182e-11 0 0)
(1.53842e-11 0 0)
(1.30875e-11 0 0)
(7.97523e-12 0 0)
(1.05176e-11 0 0)
(1.22906e-11 0 0)
(2.02098e-12 0 0)
(3.08473e-13 0 0)
(3.76911e-13 0 0)
(-1.36041e-12 0 0)
(5.50938e-12 0 0)
(4.32114e-12 0 0)
(3.29189e-12 0 0)
(7.06417e-12 0 0)
(9.46203e-12 0 0)
(1.09617e-11 0 0)
(9.84748e-12 0 0)
(6.0051e-12 0 0)
(9.64898e-12 0 0)
(1.74708e-11 0 0)
(1.86207e-11 0 0)
(2.83532e-11 0 0)
(3.0836e-11 0 0)
(2.99022e-11 0 0)
(3.58242e-11 0 0)
(3.88261e-11 0 0)
(3.29107e-11 0 0)
(3.36127e-11 0 0)
(3.93574e-11 0 0)
(4.14774e-11 0 0)
(4.58298e-11 0 0)
(4.59946e-11 0 0)
(4.48961e-11 0 0)
(4.0261e-11 0 0)
(3.86122e-11 0 0)
(3.60041e-11 0 0)
(3.76351e-11 0 0)
(3.94727e-11 0 0)
(3.9326e-11 0 0)
(4.1006e-11 0 0)
(4.07014e-11 0 0)
(3.98774e-11 0 0)
(3.68228e-11 0 0)
(3.98159e-11 0 0)
(3.79664e-11 0 0)
(3.11681e-11 0 0)
(3.75372e-11 0 0)
(4.1999e-11 0 0)
(3.98473e-11 0 0)
(3.7929e-11 0 0)
(3.79737e-11 0 0)
(3.21668e-11 0 0)
(2.8499e-11 0 0)
(3.44299e-11 0 0)
(3.3418e-11 0 0)
(2.92378e-11 0 0)
(2.60662e-11 0 0)
(2.65635e-11 0 0)
(3.18643e-11 0 0)
(3.30901e-11 0 0)
(3.64005e-11 0 0)
(3.86936e-11 0 0)
(4.25436e-11 0 0)
(4.24243e-11 0 0)
(3.66415e-11 0 0)
(3.64868e-11 0 0)
(3.23527e-11 0 0)
(2.44059e-11 0 0)
(1.711e-11 0 0)
(1.66962e-11 0 0)
(1.36237e-11 0 0)
(1.41163e-11 0 0)
(1.96587e-11 0 0)
(1.51157e-11 0 0)
(1.09664e-11 0 0)
(1.7991e-11 0 0)
(2.24768e-11 0 0)
(2.16571e-11 0 0)
(2.1798e-11 0 0)
(2.48117e-11 0 0)
(2.89919e-11 0 0)
(3.22236e-11 0 0)
(3.4381e-11 0 0)
(3.82247e-11 0 0)
(3.58657e-11 0 0)
(3.76544e-11 0 0)
(3.36253e-11 0 0)
(3.06511e-11 0 0)
(3.75592e-11 0 0)
(3.83176e-11 0 0)
(4.33988e-11 0 0)
(3.9534e-11 0 0)
(3.88116e-11 0 0)
(3.94308e-11 0 0)
(4.10494e-11 0 0)
(3.9692e-11 0 0)
(3.85829e-11 0 0)
(3.88882e-11 0 0)
(3.0664e-11 0 0)
(3.11195e-11 0 0)
(2.3658e-11 0 0)
(1.38051e-11 0 0)
(1.51517e-11 0 0)
(1.71395e-11 0 0)
(1.43236e-11 0 0)
(2.02033e-11 0 0)
(2.55997e-11 0 0)
(2.52128e-11 0 0)
(2.54101e-11 0 0)
(1.95988e-11 0 0)
(1.79454e-11 0 0)
(1.49789e-11 0 0)
(1.2172e-11 0 0)
(1.0113e-11 0 0)
(2.68302e-12 0 0)
(-6.29539e-13 0 0)
(-5.67368e-13 0 0)
(-5.62786e-12 0 0)
(-8.63332e-13 0 0)
(9.71852e-14 0 0)
(-1.05488e-11 0 0)
(-1.84712e-11 0 0)
(-3.24086e-11 0 0)
(-2.95069e-11 0 0)
(-2.27994e-11 0 0)
(-2.81699e-11 0 0)
(-2.66582e-11 0 0)
(-2.1557e-11 0 0)
(-2.54189e-11 0 0)
(-3.10282e-11 0 0)
(-2.58966e-11 0 0)
(-1.64553e-11 0 0)
(-1.69114e-11 0 0)
(-1.80088e-11 0 0)
(-2.30633e-11 0 0)
(-2.30926e-11 0 0)
(-1.98944e-11 0 0)
(-2.6172e-11 0 0)
(-2.498e-11 0 0)
(-2.38076e-11 0 0)
(-2.11966e-11 0 0)
(-1.72485e-11 0 0)
(-8.38469e-12 0 0)
(-6.61324e-12 0 0)
(-8.11077e-12 0 0)
(-9.11412e-12 0 0)
(-1.27221e-11 0 0)
(-1.34864e-11 0 0)
(-1.63459e-11 0 0)
(-1.46798e-11 0 0)
(-8.05555e-12 0 0)
(-1.18458e-11 0 0)
(-1.86122e-11 0 0)
(-1.75275e-11 0 0)
(-1.67502e-11 0 0)
(-1.1624e-11 0 0)
(-1.15945e-11 0 0)
(-1.23722e-11 0 0)
(-8.96535e-12 0 0)
(-1.06184e-11 0 0)
(-5.88678e-12 0 0)
(-1.17937e-11 0 0)
(-1.37537e-11 0 0)
(-5.25783e-12 0 0)
(-1.00417e-11 0 0)
(-1.36718e-11 0 0)
(-1.32065e-11 0 0)
(-1.31194e-11 0 0)
(-1.35659e-11 0 0)
(-1.45902e-11 0 0)
(-1.10983e-11 0 0)
(-1.5009e-11 0 0)
(-2.31878e-11 0 0)
(-2.14284e-11 0 0)
(-1.89787e-11 0 0)
(-1.68698e-11 0 0)
(-1.86147e-11 0 0)
(-2.55731e-11 0 0)
(-2.78552e-11 0 0)
(-2.57463e-11 0 0)
(-2.6643e-11 0 0)
(-2.95771e-11 0 0)
(-3.07858e-11 0 0)
(-3.5036e-11 0 0)
(-3.56885e-11 0 0)
(-2.98484e-11 0 0)
(-2.53043e-11 0 0)
(-1.95624e-11 0 0)
(-1.4972e-11 0 0)
(-1.52454e-11 0 0)
(-1.51459e-11 0 0)
(-1.69187e-11 0 0)
(-2.52328e-11 0 0)
(-2.92914e-11 0 0)
(-2.89502e-11 0 0)
(-3.36418e-11 0 0)
(-3.51376e-11 0 0)
(-3.36936e-11 0 0)
(-2.82758e-11 0 0)
(-2.79249e-11 0 0)
(-3.19585e-11 0 0)
(-3.49632e-11 0 0)
(-3.89679e-11 0 0)
(-4.28101e-11 0 0)
(-4.2901e-11 0 0)
(-3.62098e-11 0 0)
(-3.5525e-11 0 0)
(-4.24413e-11 0 0)
(-4.68044e-11 0 0)
(-5.08383e-11 0 0)
(-5.72481e-11 0 0)
(-5.69151e-11 0 0)
(-5.77323e-11 0 0)
(-5.57606e-11 0 0)
(-5.25943e-11 0 0)
(-4.87107e-11 0 0)
(-4.68199e-11 0 0)
(-4.52017e-11 0 0)
(-3.7053e-11 0 0)
(-3.21637e-11 0 0)
(-2.54477e-11 0 0)
(-2.61228e-11 0 0)
(-2.56272e-11 0 0)
(-2.39989e-11 0 0)
(-2.56808e-11 0 0)
(-2.26828e-11 0 0)
(-1.8532e-11 0 0)
(-1.79499e-11 0 0)
(-2.07423e-11 0 0)
(-2.20208e-11 0 0)
(-2.15129e-11 0 0)
(-1.99484e-11 0 0)
(-1.85259e-11 0 0)
(-1.62369e-11 0 0)
(-2.03822e-11 0 0)
(-2.1834e-11 0 0)
(-1.92247e-11 0 0)
(-1.70558e-11 0 0)
(-2.51761e-11 0 0)
(-3.28914e-11 0 0)
(-3.69358e-11 0 0)
(-3.7322e-11 0 0)
(-3.42815e-11 0 0)
(-3.70304e-11 0 0)
(-3.41017e-11 0 0)
(-3.37884e-11 0 0)
(-3.66948e-11 0 0)
(-4.27177e-11 0 0)
(-3.89459e-11 0 0)
(-3.05719e-11 0 0)
(-3.81258e-11 0 0)
(-4.17329e-11 0 0)
(-3.52592e-11 0 0)
(-3.10892e-11 0 0)
(-2.95699e-11 0 0)
(-2.74149e-11 0 0)
(-2.22585e-11 0 0)
(-2.18223e-11 0 0)
(-2.65688e-11 0 0)
(-2.86399e-11 0 0)
(-3.01862e-11 0 0)
(-2.22884e-11 0 0)
(-2.38766e-11 0 0)
(-2.35405e-11 0 0)
(-1.77213e-11 0 0)
(-2.51111e-11 0 0)
(-2.68493e-11 0 0)
(-2.47254e-11 0 0)
(-2.18339e-11 0 0)
(-2.1234e-11 0 0)
(-1.75144e-11 0 0)
(-2.05944e-11 0 0)
(-2.17493e-11 0 0)
(-1.43985e-11 0 0)
(-8.89624e-12 0 0)
(-4.82081e-12 0 0)
(-6.65161e-12 0 0)
(-9.22777e-14 0 0)
(3.43315e-12 0 0)
(3.82991e-12 0 0)
(6.55918e-12 0 0)
(1.92962e-12 0 0)
(-2.63513e-12 0 0)
(-5.60384e-12 0 0)
(-9.64587e-12 0 0)
(-6.85973e-12 0 0)
(5.77545e-14 0 0)
(-2.14191e-12 0 0)
(-5.10883e-12 0 0)
(-4.44372e-12 0 0)
(-3.03304e-13 0 0)
(2.25128e-12 0 0)
(6.29165e-12 0 0)
(8.14868e-12 0 0)
(4.56129e-12 0 0)
(6.44096e-12 0 0)
(5.80487e-12 0 0)
(4.62484e-12 0 0)
(1.05602e-11 0 0)
(1.72616e-11 0 0)
(1.78544e-11 0 0)
(1.58406e-11 0 0)
(9.78557e-12 0 0)
(1.48117e-12 0 0)
(-3.07606e-12 0 0)
(-3.71823e-13 0 0)
(2.97913e-13 0 0)
(-4.37478e-13 0 0)
(-2.73972e-12 0 0)
(-2.85521e-12 0 0)
(2.47882e-12 0 0)
(4.19453e-12 0 0)
(2.66477e-12 0 0)
(1.64535e-12 0 0)
(5.24642e-12 0 0)
(3.21828e-12 0 0)
(6.28651e-12 0 0)
(5.42696e-12 0 0)
(3.32405e-12 0 0)
(1.77494e-12 0 0)
(4.77181e-12 0 0)
(9.20762e-12 0 0)
(1.37781e-11 0 0)
(1.5749e-11 0 0)
(1.22055e-11 0 0)
(1.34721e-11 0 0)
(8.82671e-12 0 0)
(1.1621e-11 0 0)
(1.04978e-11 0 0)
(5.66315e-12 0 0)
(2.87805e-12 0 0)
(-3.88504e-12 0 0)
(-1.22954e-11 0 0)
(-1.35905e-11 0 0)
(-1.06897e-11 0 0)
(-4.84412e-12 0 0)
(-3.5143e-12 0 0)
(-8.83817e-12 0 0)
(-1.7209e-11 0 0)
(-2.21881e-11 0 0)
(-2.40549e-11 0 0)
(-2.72411e-11 0 0)
(-2.03964e-11 0 0)
(-2.18679e-11 0 0)
(-2.98878e-11 0 0)
(-3.01203e-11 0 0)
(-3.24556e-11 0 0)
(-3.56045e-11 0 0)
(-3.71281e-11 0 0)
(-3.63229e-11 0 0)
(-3.81899e-11 0 0)
(-4.17818e-11 0 0)
(-4.49886e-11 0 0)
(-5.13753e-11 0 0)
(-5.02893e-11 0 0)
(-5.12798e-11 0 0)
(-5.19641e-11 0 0)
(-5.17472e-11 0 0)
(-5.67304e-11 0 0)
(-6.0666e-11 0 0)
(-6.71518e-11 0 0)
(-7.09779e-11 0 0)
(-7.0707e-11 0 0)
(-7.03682e-11 0 0)
(-7.4857e-11 0 0)
(-7.50609e-11 0 0)
(-7.98178e-11 0 0)
(-8.36303e-11 0 0)
(-7.34445e-11 0 0)
(-7.03559e-11 0 0)
(-7.22873e-11 0 0)
(-6.36199e-11 0 0)
(-6.45152e-11 0 0)
(-6.72317e-11 0 0)
(-6.42417e-11 0 0)
(-6.53261e-11 0 0)
(-6.12407e-11 0 0)
(-6.30131e-11 0 0)
(-6.33153e-11 0 0)
(-6.12809e-11 0 0)
(-5.12845e-11 0 0)
(-4.18501e-11 0 0)
(-4.26436e-11 0 0)
(-4.8445e-11 0 0)
(-4.78881e-11 0 0)
(-4.82949e-11 0 0)
(-4.73683e-11 0 0)
(-4.55121e-11 0 0)
(-4.59588e-11 0 0)
(-4.46821e-11 0 0)
(-5.28651e-11 0 0)
(-4.9725e-11 0 0)
(-5.4819e-11 0 0)
(-6.33809e-11 0 0)
(-5.70933e-11 0 0)
(-5.81598e-11 0 0)
(-5.47794e-11 0 0)
(-5.94851e-11 0 0)
(-6.49135e-11 0 0)
(-6.11734e-11 0 0)
(-6.18695e-11 0 0)
(-5.99048e-11 0 0)
(-5.70158e-11 0 0)
(-5.67038e-11 0 0)
(-5.70722e-11 0 0)
(-5.51225e-11 0 0)
(-5.70933e-11 0 0)
(-5.61335e-11 0 0)
(-6.45678e-11 0 0)
(-6.83002e-11 0 0)
(-6.6598e-11 0 0)
(-5.68873e-11 0 0)
(-4.64428e-11 0 0)
(-3.92213e-11 0 0)
(-3.76068e-11 0 0)
(-3.79394e-11 0 0)
(-3.72165e-11 0 0)
(-4.08576e-11 0 0)
(-4.40956e-11 0 0)
(-5.5414e-11 0 0)
(-4.56212e-11 0 0)
(-3.67799e-11 0 0)
(-3.82205e-11 0 0)
(-3.81305e-11 0 0)
(-3.99183e-11 0 0)
(-4.53195e-11 0 0)
(-4.39483e-11 0 0)
(-3.4483e-11 0 0)
(-3.56906e-11 0 0)
(-3.74866e-11 0 0)
(-3.9287e-11 0 0)
(-4.20313e-11 0 0)
(-4.15552e-11 0 0)
(-4.28416e-11 0 0)
(-3.71868e-11 0 0)
(-3.62308e-11 0 0)
(-3.38041e-11 0 0)
(-3.44602e-11 0 0)
(-3.5282e-11 0 0)
(-3.52873e-11 0 0)
(-3.63953e-11 0 0)
(-3.77869e-11 0 0)
(-4.28886e-11 0 0)
(-3.96989e-11 0 0)
(-3.8315e-11 0 0)
(-3.65737e-11 0 0)
(-3.7507e-11 0 0)
(-3.74292e-11 0 0)
(-3.14648e-11 0 0)
(-1.87586e-11 0 0)
(-1.7023e-11 0 0)
(-2.13993e-11 0 0)
(-2.11671e-11 0 0)
(-2.45894e-11 0 0)
(-2.9734e-11 0 0)
(-3.60759e-11 0 0)
(-3.93734e-11 0 0)
(-4.70891e-11 0 0)
(-4.21557e-11 0 0)
(-3.58127e-11 0 0)
(-3.07762e-11 0 0)
(-7.02874e-12 0 0)
(-6.87573e-11 0 0)
(1.01748e-10 0 0)
(-2.25921e-10 0 0)
(2.53548e-10 0 0)
(-1.90322e-10 0 0)
)
;

boundaryField
{
    upDown
    {
        type            empty;
    }
    left
    {
        type            fixedValue;
        value           uniform (0 0 0);
    }
    right
    {
        type            zeroGradient;
    }
    frontAndBack
    {
        type            empty;
    }
}


// ************************************************************************* //
